 DBCSR| CPU Multiplication driver                                           BLAS
 DBCSR| Multrec recursion limit                                              512
 DBCSR| Multiplication stack size                                           1000
 DBCSR| Maximum elements for images                                    UNLIMITED
 DBCSR| Multiplicative factor virtual images                                   1
 DBCSR| Use multiplication densification                                       T
 DBCSR| Multiplication size stacks                                             3
 DBCSR| Use memory pool for CPU allocation                                     F
 DBCSR| Number of 3D layers                                               SINGLE
 DBCSR| Use MPI memory allocation                                              F
 DBCSR| Use RMA algorithm                                                      F
 DBCSR| Use Communication thread                                               T
 DBCSR| Communication thread load                                             87
 DBCSR| MPI: My node id                                                        0
 DBCSR| MPI: Number of nodes                                                 128
 DBCSR| OMP: Current number of threads                                         1
 DBCSR| OMP: Max number of threads                                             1
 DBCSR| Split modifier for TAS multiplication algorithm                  1.0E+00


  **** **** ******  **  PROGRAM STARTED AT               2025-10-22 11:30:22.255
 ***** ** ***  *** **   PROGRAM STARTED ON                             nid004056
 **    ****   ******    PROGRAM STARTED BY                            xr223_ukcp
 ***** **    ** ** **   PROGRAM PROCESS ID                                119728
  **** **  *******  **  PROGRAM STARTED IN /mnt/lustre/a2fs-work3/work/e89/e89/x
                                           r223_ukcp/BINDING-ENERGY-DARREN/bindi
                                           ng-energy/0-leg/s+0.00/d+2.50

 CP2K| version string:                                          CP2K version 9.1
 CP2K| source code revision number:                                  git:d8d7100
 CP2K| cp2kflags: omp libint fftw3 libxc elpa parallel mpi3 scalapack plumed2 mk
 CP2K|            l
 CP2K| is freely available from                            https://www.cp2k.org/
 CP2K| Program compiled at                       Thu 08 Jun 2023 08:54:13 AM BST
 CP2K| Program compiled on                                                  ln03
 CP2K| Program compiled for                                              ARCHER2
 CP2K| Data directory path       /work/y07/shared/apps/core/cp2k/cp2k-9.1.0/data
 CP2K| Input file name                                              cp2k_sub.inp

 GLOBAL| Force Environment number                                              1
 GLOBAL| Basis set file name                                      GTH_BASIS_SETS
 GLOBAL| Potential file name                                           POTENTIAL
 GLOBAL| MM Potential file name                                     MM_POTENTIAL
 GLOBAL| Coordinate file name                                           init.pdb
 GLOBAL| Method name                                                        CP2K
 GLOBAL| Project name                                                    MAT-H2O
 GLOBAL| Run type                                                         ENERGY
 GLOBAL| FFT library                                                       FFTW3
 GLOBAL| Diagonalization library                                            ELPA
 GLOBAL| Minimum number of eigenvectors for ELPA usage                        16
 GLOBAL| Orthonormality check for eigenvectors                          DISABLED
 GLOBAL| Matrix multiplication library                                 ScaLAPACK
 GLOBAL| All-to-all communication in single precision                          F
 GLOBAL| FFTs using library dependent lengths                                  F
 GLOBAL| Grid backend                                                       AUTO
 GLOBAL| Global print level                                                  LOW
 GLOBAL| MPI I/O enabled                                                       T
 GLOBAL| Total number of message passing processes                           128
 GLOBAL| Number of threads for this process                                    1
 GLOBAL| This output is from process                                           0
 GLOBAL| Stack size for threads created by OpenMP (OMP_STACKSIZE)        default
 GLOBAL| CPU model name                          AMD EPYC 7742 64-Core Processor
 GLOBAL| CPUID                                                              1002

 MEMORY| system memory details [Kb]
 MEMORY|                        rank 0           min           max       average
 MEMORY| MemTotal            263266864     263266864     263266864     263266864
 MEMORY| MemFree             241456096     241456096     241456096     241456096
 MEMORY| Buffers                198124        198124        198124        198124
 MEMORY| Cached                1347472       1347472       1347476       1347475
 MEMORY| Slab                  3289972       3289972       3289972       3289972
 MEMORY| SReclaimable           952720        952720        952720        952720
 MEMORY| MemLikelyFree       243954412     243954412     243954416     243954415


 *******************************************************************************
 *******************************************************************************
 **                                                                           **
 **     #####                         ##              ##                      **
 **    ##   ##            ##          ##              ##                      **
 **   ##     ##                       ##            ######                    **
 **   ##     ##  ##   ##  ##   #####  ##  ##   ####   ##    #####    #####    **
 **   ##     ##  ##   ##  ##  ##      ## ##   ##      ##   ##   ##  ##   ##   **
 **   ##  ## ##  ##   ##  ##  ##      ####     ###    ##   ######   ######    **
 **    ##  ###   ##   ##  ##  ##      ## ##      ##   ##   ##       ##        **
 **     #######   #####   ##   #####  ##  ##  ####    ##    #####   ##        **
 **           ##                                                    ##        **
 **                                                                           **
 **                                                ... make the atoms dance   **
 **                                                                           **
 **            Copyright (C) by CP2K developers group (2000-2021)             **
 **                      J. Chem. Phys. 152, 194103 (2020)                    **
 **                                                                           **
 *******************************************************************************


 TOTAL NUMBERS AND MAXIMUM NUMBERS

  Total number of            - Atomic kinds:                                   3
                             - Atoms:                                         67
                             - Shell sets:                                    70
                             - Shells:                                       338
                             - Primitive Cartesian functions:                341
                             - Cartesian basis functions:                    938
                             - Spherical basis functions:                    872

  Maximum angular momentum of- Orbital basis functions:                        2
                             - Local part of the GTH pseudopotential:          2
                             - Non-local part of the GTH pseudopotential:      0


 SCF PARAMETERS         Density guess:                                   RESTART
                        --------------------------------------------------------
                        max_scf:                                              20
                        max_scf_history:                                       0
                        max_diis:                                              4
                        --------------------------------------------------------
                        eps_scf:                                        5.00E-07
                        eps_scf_history:                                0.00E+00
                        eps_diis:                                       1.00E-01
                        eps_eigval:                                     1.00E-05
                        --------------------------------------------------------
                        level_shift [a.u.]:                                 0.00
                        added MOs                                        20    0
                        --------------------------------------------------------
                        Mixing method:                            BROYDEN_MIXING
                                                charge density mixing in g-space
                        --------------------------------------------------------
                        Smear method:                                FERMI_DIRAC
                        Electronic temperature [K]:                        300.0
                        Electronic temperature [a.u.]:                  9.50E-04
                        Accuracy threshold:                             1.00E-10
                        --------------------------------------------------------
                        Outer loop SCF in use 
                        No variables optimised in outer loop
                        eps_scf                                         5.00E-07
                        max_scf                                               20
                        No outer loop optimization
                        step_size                                       5.00E-01

 Number of electrons:                                                        264
 Number of occupied orbitals:                                                132
 Number of molecular orbitals:                                               152

 Number of orbital functions:                                                872
 Number of independent orbital functions:                                    872

 Extrapolation method: initial_guess


 SCF WAVEFUNCTION OPTIMIZATION

  Step     Update method      Time    Convergence         Total energy    Change
  ------------------------------------------------------------------------------
     1 NoMix/Diag. 0.40E+00    0.5     0.00000176      -382.2013431525 -3.82E+02
     2 Broy./Diag. 0.40E+00    0.7     0.00000083      -382.2013401855  2.97E-06
     3 Broy./Diag. 0.40E+00    0.8     0.00000044      -382.2013426504 -2.46E-06

  *** SCF run converged in     3 steps ***


  Electronic density on regular grids:       -264.0000000000        0.0000000000
  Core density on regular grids:              263.9999999998       -0.0000000002
  Total charge density on r-space grids:       -0.0000000002
  Total charge density g-space grids:          -0.0000000002

  Overlap energy of the core charge distribution:               0.00001108938960
  Self energy of the core charge distribution:               -897.78766230971098
  Core Hamiltonian energy:                                    281.16110184961605
  Hartree energy:                                             351.20380048973351
  Exchange-correlation energy:                               -116.59703697062977
  Dispersion energy:                                           -0.18155679878473
  Electronic entropic energy:                                  -0.00000000000000
  Fermi energy:                                                -0.05579148162692

  Total energy:                                              -382.20134265038627

  outer SCF iter =    1 RMS gradient =   0.44E-06 energy =       -382.2013426504
  outer SCF loop converged in   1 iterations or    3 steps


 ENERGY| Total FORCE_EVAL ( QS ) energy [a.u.]:             -382.201342650386266

 -------------------------------------------------------------------------------
 -                                                                             -
 -                                DBCSR STATISTICS                             -
 -                                                                             -
 -------------------------------------------------------------------------------
 COUNTER                                    TOTAL       BLAS       SMM       ACC
 flops     9 x    24 x     9                15552     100.0%      0.0%      0.0%
 flops     9 x    24 x    22                19008     100.0%      0.0%      0.0%
 flops    22 x    24 x     9                19008     100.0%      0.0%      0.0%
 flops    22 x    24 x    22                23232     100.0%      0.0%      0.0%
 flops     9 x    22 x    24                38016     100.0%      0.0%      0.0%
 flops    22 x     9 x    24                38016     100.0%      0.0%      0.0%
 flops     9 x     9 x    24                46656     100.0%      0.0%      0.0%
 flops     9 x    32 x     9                82944     100.0%      0.0%      0.0%
 flops    22 x    22 x    24                92928     100.0%      0.0%      0.0%
 flops    22 x    32 x     9               101376     100.0%      0.0%      0.0%
 flops     9 x    32 x    22               101376     100.0%      0.0%      0.0%
 flops    22 x    32 x    22               123904     100.0%      0.0%      0.0%
 flops     9 x    22 x    32               202752     100.0%      0.0%      0.0%
 flops    22 x     9 x    32               202752     100.0%      0.0%      0.0%
 flops     9 x     9 x    32               248832     100.0%      0.0%      0.0%
 flops    22 x    22 x    32               495616     100.0%      0.0%      0.0%
 flops     9 x    24 x    13               718848     100.0%      0.0%      0.0%
 flops    13 x    24 x     9               718848     100.0%      0.0%      0.0%
 flops    13 x    24 x    22               878592     100.0%      0.0%      0.0%
 flops    22 x    24 x    13               878592     100.0%      0.0%      0.0%
 flops     9 x    13 x    24              1437696     100.0%      0.0%      0.0%
 flops    13 x     9 x    24              1437696     100.0%      0.0%      0.0%
 flops    22 x    13 x    24              1757184     100.0%      0.0%      0.0%
 flops    13 x    22 x    24              1757184     100.0%      0.0%      0.0%
 flops    13 x    32 x     9              3833856     100.0%      0.0%      0.0%
 flops     9 x    32 x    13              3833856     100.0%      0.0%      0.0%
 flops    22 x    32 x    13              4685824     100.0%      0.0%      0.0%
 flops    13 x    32 x    22              4685824     100.0%      0.0%      0.0%
 flops     9 x    13 x    32              7667712     100.0%      0.0%      0.0%
 flops    13 x     9 x    32              7667712     100.0%      0.0%      0.0%
 flops    22 x    13 x    32              9371648     100.0%      0.0%      0.0%
 flops    13 x    22 x    32              9371648     100.0%      0.0%      0.0%
 flops    13 x    24 x    13             33226752     100.0%      0.0%      0.0%
 flops    13 x    13 x    24             67491840     100.0%      0.0%      0.0%
 flops    13 x    32 x    13            177209344     100.0%      0.0%      0.0%
 flops    13 x    13 x    32            359956480     100.0%      0.0%      0.0%
 flops inhomo. stacks                           0       0.0%      0.0%      0.0%
 flops total                       700.439104E+06     100.0%      0.0%      0.0%
 flops max/rank                     12.663040E+06     100.0%      0.0%      0.0%
 matmuls inhomo. stacks                         0       0.0%      0.0%      0.0%
 matmuls total                              68005     100.0%      0.0%      0.0%
 number of processed stacks                  5145     100.0%      0.0%      0.0%
 average stack size                                    13.2       0.0       0.0
 marketing flops                     1.034122E+09
 -------------------------------------------------------------------------------
 # multiplications                              5
 max memory usage/rank             307.388416E+06
 # max total images/rank                        2
 # max 3D layers                                1
 # MPI messages exchanged                   18560
 MPI messages size (bytes):
  total size                       191.979520E+06
  min size                           0.000000E+00
  max size                          60.840000E+03
  average size                      10.343725E+03
 MPI breakdown and total messages size (bytes):
             size <=      128               11440                        0
       128 < size <=     8192                   0                        0
      8192 < size <=    32768                5200                100733440
     32768 < size <=   131072                1920                 91246080
    131072 < size <=  4194304                   0                        0
   4194304 < size <= 16777216                   0                        0
  16777216 < size                               0                        0
 -------------------------------------------------------------------------------

 *** WARNING in dbcsr_mm.F:294 :: Using a non-square number of MPI ranks ***
 *** might lead to poor performance. Used ranks: 128 Suggested: 121 256  ***

 -------------------------------------------------------------------------------
 -                                                                             -
 -                      DBCSR MESSAGE PASSING PERFORMANCE                      -
 -                                                                             -
 -------------------------------------------------------------------------------
 ROUTINE             CALLS      AVE VOLUME [Bytes]
 MP_Bcast               37                     12.
 MP_Allreduce          120                     21.
 MP_Alltoall           133                  50888.
 MP_ISend              320                   5897.
 MP_IRecv              320                   5177.
 -------------------------------------------------------------------------------

 -------------------------------------------------------------------------------
 -                                                                             -
 -                                GRID STATISTICS                              -
 -                                                                             -
 -------------------------------------------------------------------------------
 LP    KERNEL             BACKEND                              COUNT     PERCENT
 4     collocate ortho    REF                                 192344      51.44%
 4     integrate ortho    REF                                 144258      38.58%
 0     collocate general  REF                                   8576       2.29%
 2     collocate ortho    REF                                   8364       2.24%
 3     collocate ortho    REF                                   7296       1.95%
 2     integrate ortho    REF                                   6273       1.68%
 3     integrate ortho    REF                                   5472       1.46%
 1     collocate ortho    REF                                    456       0.12%
 1     integrate ortho    REF                                    342       0.09%
 0     collocate ortho    REF                                    320       0.09%
 0     integrate ortho    REF                                    240       0.06%
 -------------------------------------------------------------------------------

 MEMORY| Estimated peak process memory [MiB]                                 295

 -------------------------------------------------------------------------------
 -                                                                             -
 -                         MESSAGE PASSING PERFORMANCE                         -
 -                                                                             -
 -------------------------------------------------------------------------------

 ROUTINE             CALLS      AVE VOLUME [Bytes]
 MP_Group                5
 MP_Bcast              285                2284788.
 MP_Allreduce          362                   2688.
 MP_Sync                13
 MP_Alltoall            68                2663193.
 MP_SendRecv            36                 409600.
 MP_ISendRecv         2667                  24960.
 MP_Wait              3057
 MP_comm_split           4
 MP_ISend              330                 376275.
 MP_IRecv              330                 376941.
 MP_Recv                15                  69760.
 -------------------------------------------------------------------------------


 -------------------------------------------------------------------------------
 -                                                                             -
 -                           R E F E R E N C E S                               -
 -                                                                             -
 -------------------------------------------------------------------------------
 
 CP2K version 9.1, the CP2K developers group (2021).
 CP2K is freely available from https://www.cp2k.org/ .

 Kuehne,Thomas D.; Iannuzzi,Marcella; Del Ben,Mauro;
 Rybkin,Vladimir V.; Seewald,Patrick; Stein,Frederick; Laino,Teodoro;
 Khaliullin,Rustam Z.; Schuett,Ole; Schiffmann,Florian; Golze,Dorothea;
 Wilhelm,Jan; Chulkov,Sergey; Bani-Hashemian,Mohammad Hossein;
 Weber,Valery; Borstnik,Urban; Taillefumier,Mathieu;
 Jakobovits,Alice Shoshana; Lazzaro,Alfio; Pabst,Hans; Mueller,Tiziano;
 Schade,Robert; Guidon,Manuel; Andermatt,Samuel; Holmberg,Nico;
 Schenter,Gregory K.; Hehn,Anna; Bussy,Augustin; Belleflamme,Fabian;
 Tabacchi,Gloria; Gloess,Andreas; Lass,Michael; Bethune,Iain;
 Mundy,Christopher J.; Plessl,Christian; Watkins,Matt;
 VandeVondele,Joost; Krack,Matthias; Hutter,Juerg. 
 The Journal of Chemical Physics, 152 (19), (2020). 
 CP2K: An electronic structure and molecular dynamics software package -
 Quickstep: Efficient and accurate electronic structure calculations.
 https://doi.org/10.1063/5.0007045

 Goerigk, Lars; Hansen, Andreas; Bauer, Christoph; Ehrlich, Stephan;
 Najibi, Asim; Grimme, Stefan. , 19 (48), (2017). 
 A look at the density functional theory zoo with the advanced GMTKN55 database
 for general main group thermochemistry, kinetics and noncovalent interactions.
 https://doi.org/10.1039/C7CP04913G

 Schuett, Ole; Messmer, Peter; Hutter, Juerg; VandeVondele, Joost. 
 Electronic Structure Calculations on Graphics Processing Units, John
 Wiley & Sons, Ltd, 173-190 (2016). 
 GPU-Accelerated Sparse Matrix-Matrix Multiplication for
 Linear Scaling Density Functional Theory.
 https://doi.org/10.1002/9781118670712.ch8

 Borstnik, U; VandeVondele, J; Weber, V; Hutter, J. 
 PARALLEL COMPUTING, 40 (5-6), 47-58 (2014). 
 Sparse matrix multiplication: The distributed block-compressed sparse
 row library.
 https://doi.org/10.1016/j.parco.2014.03.012

 Hutter, J; Iannuzzi, M; Schiffmann, F; VandeVondele, J. 
 WIREs Comput Mol Sci., 4 (1), 15-25 (2014). 
 CP2K: atomistic simulations of condensed matter systems.
 https://doi.org/10.1002/wcms.1159

 Marek, A; Blum, V; Johanni, R; Havu, V; Lang, B; Auckenthaler, T;
 Heinecke, A; Bungartz, H; Lederer, H. 
 Journal of Physics: Condensed Matter, 26 (21), (2014). 
 The ELPA library: scalable parallel eigenvalue solutions for
 electronic structure
 theory and computational science.
 https://doi.org/10.1088/0953-8984/26/21/213201

 Grimme, S; Ehrlich, S; Goerigk, L. 
 JOURNAL OF COMPUTATIONAL CHEMISTRY, 32, 1456 (2011). 
 Effect of the damping function in dispersion corrected density functional theory.
 https://doi.org/10.1002/jcc.21759

 Grimme, S; Antony, J; Ehrlich, S; Krieg, H. 
 JOURNAL OF CHEMICAL PHYSICS, 132 (15), 154104 (2010). 
 A consistent and accurate ab initio parametrization of density
 functional dispersion correction (DFT-D) for the 94 elements H-Pu.
 https://doi.org/10.1063/1.3382344

 VandeVondele, J; Hutter, J. 
 JOURNAL OF CHEMICAL PHYSICS, 127 (11), 114105 (2007). 
 Gaussian basis sets for accurate calculations on molecular systems in
 gas and condensed phases.
 https://doi.org/10.1063/1.2770708

 Krack, M. 
 THEORETICAL CHEMISTRY ACCOUNTS, 114 (1-3), 145-152 (2005). 
 Pseudopotentials for H to Kr optimized for gradient-corrected
 exchange-correlation functionals.
 https://doi.org/10.1007/s00214-005-0655-y

 VandeVondele, J; Krack, M; Mohamed, F; Parrinello, M; Chassaing, T;
 Hutter, J. COMPUTER PHYSICS COMMUNICATIONS, 167 (2), 103-128 (2005). 
 QUICKSTEP: Fast and accurate density functional calculations using a
 mixed Gaussian and plane waves approach.
 https://doi.org/10.1016/j.cpc.2004.12.014

 Frigo, M; Johnson, SG. 
 PROCEEDINGS OF THE IEEE, 93 (2), 216-231 (2005). 
 The design and implementation of FFTW3.
 https://doi.org/10.1109/JPROC.2004.840301

 Hartwigsen, C; Goedecker, S; Hutter, J. 
 PHYSICAL REVIEW B, 58 (7), 3641-3662 (1998). 
 Relativistic separable dual-space Gaussian pseudopotentials from H to Rn.
 https://doi.org/10.1103/PhysRevB.58.3641

 Zhang, YK; Yang, WT. 
 PHYSICAL REVIEW LETTERS, 80 (4), 890-890 (1998). 
 Comment on Generalized gradient approximation made simple.
 https://doi.org/10.1103/PhysRevLett.80.890

 Lippert, G; Hutter, J; Parrinello, M. 
 MOLECULAR PHYSICS, 92 (3), 477-487 (1997). 
 A hybrid Gaussian and plane wave density functional scheme.
 https://doi.org/10.1080/002689797170220

 Perdew, JP; Burke, K; Ernzerhof, M. 
 PHYSICAL REVIEW LETTERS, 77 (18), 3865-3868 (1996). 
 Generalized gradient approximation made simple.
 https://doi.org/10.1103/PhysRevLett.77.3865

 Goedecker, S; Teter, M; Hutter, J. 
 PHYSICAL REVIEW B, 54 (3), 1703-1710 (1996). 
 Separable dual-space Gaussian pseudopotentials.
 https://doi.org/10.1103/PhysRevB.54.1703


 -------------------------------------------------------------------------------
 -                                                                             -
 -                                T I M I N G                                  -
 -                                                                             -
 -------------------------------------------------------------------------------
 SUBROUTINE                       CALLS  ASD         SELF TIME        TOTAL TIME
                                MAXIMUM       AVERAGE  MAXIMUM  AVERAGE  MAXIMUM
 CP2K                                 1  1.0    0.111    0.124    4.047    4.053
 qs_energies                          1  2.0    0.006    0.011    3.279    3.288
 scf_env_do_scf                       1  3.0    0.000    0.002    2.287    2.293
 scf_env_do_scf_inner_loop            3  4.0    0.009    0.011    2.286    2.292
 qs_ks_update_qs_env                  3  5.0    0.000    0.000    1.096    1.100
 rebuild_ks_matrix                    3  6.0    0.003    0.004    1.094    1.096
 qs_ks_build_kohn_sham_matrix         3  7.0    0.005    0.009    1.091    1.095
 rs_pw_transfer                      36  9.2    0.001    0.001    1.001    1.037
 qs_rho_update_rho                    4  5.0    0.000    0.001    1.002    1.004
 calculate_rho_elec                   4  6.0    0.004    0.005    1.001    1.004
 density_rs2pw                        4  7.0    0.003    0.003    0.764    0.804
 init_scf_run                         1  3.0    0.002    0.003    0.686    0.689
 pw_transfer                         51  8.9    0.010    0.012    0.592    0.623
 sum_up_and_integrate                 3  8.0    0.005    0.008    0.595    0.599
 fft_wrap_pw1pw2                     45  9.9    0.001    0.002    0.570    0.599
 integrate_v_rspace                   3  9.0    0.000    0.001    0.591    0.595
 fft_wrap_pw1pw2_530                 17 10.2    0.048    0.058    0.516    0.550
 potential_pw2rs                      3 10.0    0.000    0.000    0.522    0.526
 scf_env_initial_rho_setup            1  4.0    0.003    0.006    0.514    0.516
 rs_pw_transfer_RS2PW_530             5  8.6    0.206    0.245    0.437    0.478
 fft3d_ps                            45 11.9    0.213    0.234    0.444    0.471
 mp_waitany                         330 11.1    0.347    0.445    0.347    0.445
 qs_scf_new_mos                       3  5.0    0.001    0.002    0.355    0.358
 qs_init_subsys                       1  2.0    0.008    0.015    0.350    0.358
 qs_vxc_create                        3  8.0    0.003    0.005    0.334    0.346
 cp_fm_diag_elpa                      4  7.2    0.000    0.001    0.343    0.346
 xc_vxc_pw_create                     3  9.0    0.011    0.017    0.331    0.344
 eigensolver                          3  6.0    0.001    0.002    0.331    0.332
 qs_energies_init_hamiltonians        1  3.0    0.005    0.008    0.291    0.297
 cp_fm_redistribute_end               4  8.2    0.257    0.294    0.257    0.294
 cp_fm_diag_elpa_base                 4  8.1    0.035    0.285    0.035    0.288
 rs_pw_transfer_PW2RS_530             3 12.0    0.142    0.157    0.262    0.272
 grid_collocate_task_list             4  7.0    0.220    0.258    0.220    0.258
 xc_rho_set_and_dset_create           3 10.0    0.005    0.007    0.234    0.256
 qs_env_update_s_mstruct              1  4.0    0.000    0.001    0.220    0.239
 mp_alltoall_z22v                    45 13.9    0.182    0.237    0.182    0.237
 pw_nn_compose_r                     18 10.5    0.097    0.104    0.144    0.212
 create_qs_kind_set                   1  2.0    0.000    0.001    0.198    0.212
 read_qs_kind                         3  3.0    0.044    0.054    0.198    0.212
 calculate_rho_core                   1  5.0    0.007    0.011    0.193    0.212
 qs_dispersion_pairpot_init           1  3.0    0.010    0.163    0.180    0.204
 mp_bcast_i                          86  6.0    0.147    0.181    0.147    0.181
 calculate_first_density_matrix       1  5.0    0.002    0.004    0.176    0.179
 parser_read_line                  9939  4.0    0.004    0.004    0.160    0.174
 parser_read_line_low                15  5.1    0.007    0.131    0.156    0.171
 xc_functional_eval                   3 11.0    0.000    0.000    0.148    0.165
 pbe_lda_eval                         3 12.0    0.148    0.165    0.148    0.165
 broadcast_input_information         15  6.1    0.000    0.000    0.149    0.165
 yz_to_x                             24 12.3    0.019    0.027    0.112    0.159
 mp_waitall_1                      3287 11.5    0.134    0.158    0.134    0.158
 mp_bcast_dv                          7  7.9    0.154    0.157    0.154    0.157
 cp_fm_cholesky_decompose             1  4.0    0.145    0.150    0.145    0.150
 qs_env_setup                         1  3.0    0.003    0.005    0.131    0.146
 qs_env_rebuild_pw_env                2  3.5    0.002    0.002    0.121    0.135
 x_to_yz                             21 13.5    0.025    0.030    0.114    0.133
 pw_env_rebuild                       1  5.0    0.006    0.009    0.118    0.131
 mp_sendrecv_dm2                     36 11.5    0.047    0.124    0.047    0.124
 gspace_mixing                        2  5.0    0.002    0.004    0.113    0.115
 make_basis_lowdin                    1  6.0    0.003    0.004    0.104    0.107
 pw_grid_setup                        5  6.0    0.001    0.003    0.096    0.098
 pw_grid_setup_internal               5  7.0    0.007    0.009    0.096    0.098
 rs_pw_transfer_PW2RS_180             3 12.0    0.021    0.026    0.070    0.091
 -------------------------------------------------------------------------------

 The number of warnings for this run is : 1
 
 -------------------------------------------------------------------------------
  **** **** ******  **  PROGRAM ENDED AT                 2025-10-22 11:30:31.544
 ***** ** ***  *** **   PROGRAM RAN ON                                 nid004056
 **    ****   ******    PROGRAM RAN BY                                xr223_ukcp
 ***** **    ** ** **   PROGRAM PROCESS ID                                119728
  **** **  *******  **  PROGRAM STOPPED IN /mnt/lustre/a2fs-work3/work/e89/e89/x
                                           r223_ukcp/BINDING-ENERGY-DARREN/bindi
                                           ng-energy/0-leg/s+0.00/d+2.50
