LAMMPS data file via write_data, version 4 Feb 2025, timestep = 80000, units = metal

11640 atoms
3 atom types

0 155.54807999999997 xlo xhi
0 149.67620976654908 ylo yhi
0 151.07316997686289 zlo zhi

Masses

1 12.01099999691024
2 1.007999999740698
3 15.99899999588435

Atoms # full

5401 0 1 0 5.591629355631864 14.834781855426808 120.42746872786076 0 0 0
5400 0 1 0 9.149737615108561 11.066843227911043 120.12944886046016 0 0 0
4904 0 1 0 0.575440659231849 1.0243302636427443 119.84927251521799 0 0 0
5141 0 1 0 1.277934832904345 2.307962896771947 119.8794469875555 0 0 0
5143 0 1 0 3.3762187514179236 1.084679172717718 119.90573988510218 0 0 0
5392 0 1 0 9.220015275637655 6.027742101720025 120.15626169675669 0 0 0
5142 0 1 0 2.680244328477989 2.309912724222815 119.90459191908971 0 0 0
5168 0 1 0 4.850557939384777 16.10601906454944 120.45262317996912 0 0 0
4908 0 1 0 0.5926113962051205 3.548153809659302 119.84429348947612 0 0 0
5147 0 1 0 3.4673343635204223 3.5685363296697794 119.94608492213216 0 0 0
5408 0 1 0 9.197436806909199 16.108129061656104 120.18107157085326 0 0 0
5381 0 1 0 5.61406989138243 2.350175524965548 119.9445365261749 0 0 0
5144 0 1 0 4.819855136417299 1.0914205605373941 119.96193989522015 0 0 0
5396 0 1 0 9.237855111599027 8.571060491620408 120.13743699309356 0 0 0
5382 0 1 0 7.051735050890636 2.3293511732394427 120.0536532163566 0 0 0
5148 0 1 0 4.932492499007703 3.604529978208456 119.96831264384562 0 0 0
5387 0 1 0 7.7765008937526305 3.513052845719941 120.03116937405116 0 0 0
5383 0 1 0 7.690195528209041 1.0509474553090743 119.96324282640796 0 0 0
5405 0 1 0 5.620048728811158 17.340073675262435 120.50785797049645 0 0 0
5145 0 1 0 1.3066427689242215 4.850676755227811 120.0038069155765 0 0 0
4912 0 1 0 0.6081456576330622 6.072390612265783 120.1396905569172 0 0 0
5149 0 1 0 1.2807813231777827 7.329748426531552 120.14369190467292 0 0 0
5151 0 1 0 3.481205646420202 6.051320540989145 120.20124963191749 0 0 0
5146 0 1 0 2.748822555538556 4.808061885764874 120.1004640306681 0 0 0
5150 0 1 0 2.722690150555678 7.314710180898761 120.26708283191202 0 0 0
4916 0 1 0 0.5843380162026516 8.577650424620895 120.19314601245826 0 0 0
5152 0 1 0 4.920006056186952 6.01821750676434 120.25464671761802 0 0 0
5385 0 1 0 5.667239149478655 4.824485727401273 120.0916795323468 0 0 0
5389 0 1 0 5.589488302344879 7.255479763367373 120.33508101094539 0 0 0
5386 0 1 0 7.081446698144054 4.753121978852491 120.0643780636805 0 0 0
5390 0 1 0 7.081932957428675 7.278030527990411 120.33851806501727 0 0 0
5391 0 1 0 7.815390692198884 6.012107894384632 120.22224222603212 0 0 0
5403 0 1 0 7.684828798997011 13.595114672391196 120.3135451289538 0 0 0
5153 0 1 0 1.275275153067241 9.846573728729005 120.27892908831782 0 0 0
5407 0 1 0 7.764553816778574 16.113232488904462 120.31688101794313 0 0 0
4920 0 1 0 0.5723939487808072 11.077089082087008 120.26016290354957 0 0 0
5157 0 1 0 1.34649512918591 12.350501565920146 120.26462461147118 0 0 0
5158 0 1 0 2.7219301762008272 12.332031967431782 120.42096965053219 0 0 0
5155 0 1 0 3.448429496137882 8.589471671536131 120.36725734380217 0 0 0
5154 0 1 0 2.7416291166059277 9.878273560200158 120.36842162184557 0 0 0
5159 0 1 0 3.488916480662446 11.065482595733215 120.35938847629271 0 0 0
5395 0 1 0 7.791126471157624 8.552478873190601 120.36910834633115 0 0 0
5397 0 1 0 5.627518193169418 12.320804733386387 120.37644493278214 0 0 0
5393 0 1 0 5.636248931353606 9.790410286804581 120.46620806956079 0 0 0
5156 0 1 0 4.863580453941988 8.54610735038506 120.29084126259585 0 0 0
5160 0 1 0 4.910052516748981 11.048682511269739 120.44597655636238 0 0 0
5394 0 1 0 7.078688067263375 9.774128070211281 120.38455785485428 0 0 0
5398 0 1 0 7.005411301238315 12.308844235334893 120.37368998405792 0 0 0
5399 0 1 0 7.7293966887179355 11.02152791760278 120.27115849817712 0 0 0
5166 0 1 0 2.7037426503856947 17.44602429215216 120.21797868223943 0 0 0
5162 0 1 0 2.724817737666123 14.821895723681699 120.28663678114265 0 0 0
5165 0 1 0 1.2892646128928145 17.32932961472617 120.19994726839344 0 0 0
4928 0 1 0 0.6002935162278639 16.06877855163882 120.16258875023863 0 0 0
5164 0 1 0 4.910419728454412 13.559618711914698 120.42630164974378 0 0 0
5406 0 1 0 7.034080865556068 17.364796222877587 120.44963487115585 0 0 0
4924 0 1 0 0.5386706756520393 13.578491470494646 120.21913629032755 0 0 0
5161 0 1 0 1.2786512896321272 14.784911771244499 120.23051683306912 0 0 0
5167 0 1 0 3.4329580479495987 16.118544749256404 120.36646841521903 0 0 0
5163 0 1 0 3.4350679643912647 13.59729139752689 120.334411493231 0 0 0
5402 0 1 0 7.017857196034304 14.87547081056695 120.40675256329357 0 0 0
5404 0 1 0 9.136892147616386 13.571160092543714 120.26824167419517 0 0 0
5384 0 1 0 9.137648529909647 1.1054521627223493 119.76028209762133 0 0 0
5388 0 1 0 9.191369176113817 3.577614389983818 119.9565281317413 0 0 0
4932 0 1 0 0.5758723470139047 18.61392983767362 120.19340675728232 0 0 0
5412 0 1 0 9.221449142924186 18.61679422537384 120.18837544641468 0 0 0
5171 0 1 0 3.429724758596838 18.628250995270633 120.32467652808276 0 0 0
5172 0 1 0 4.89800221812942 18.60634519829043 120.38703190636672 0 0 0
5411 0 1 0 7.7525420523353965 18.64732497428961 120.35600050489917 0 0 0
5433 0 1 0 5.618765348434084 34.78515523613795 120.73103889700994 0 0 0
5169 0 1 0 1.3297619830511953 19.856443031595365 120.14246059173382 0 0 0
5438 0 1 0 7.0133593926277875 37.25770750573448 120.61471738954204 0 0 0
5435 0 1 0 7.81472617414629 33.466305667733856 120.6468033408716 0 0 0
4936 0 1 0 0.5952162483979409 21.07199667391857 120.10550912026612 0 0 0
5440 0 1 0 9.226351284320032 36.02723638674462 120.6605210925368 0 0 0
5170 0 1 0 2.745310505941983 19.833437187952093 120.36817624347098 0 0 0
5175 0 1 0 3.387864494655984 21.102492824565573 120.3568873000691 0 0 0
5173 0 1 0 1.2782138071217186 22.35288873957185 120.15208762987358 0 0 0
5174 0 1 0 2.7058973403780553 22.332898128207926 120.30370554793483 0 0 0
5409 0 1 0 5.5852171170150875 19.839657142256527 120.38442153402406 0 0 0
5428 0 1 0 9.212093768475935 28.492081621748437 120.31516863764253 0 0 0
5176 0 1 0 4.837216737101383 21.088344304042618 120.39872851926191 0 0 0
5410 0 1 0 7.048884213222728 19.82238771014893 120.41280721219185 0 0 0
5432 0 1 0 9.19794125698184 30.989670781064508 120.49980031289016 0 0 0
5413 0 1 0 5.598015696920259 22.33771639199311 120.38392130277457 0 0 0
5414 0 1 0 7.032838205370223 22.25929286235591 120.43230988997166 0 0 0
5415 0 1 0 7.798118957492347 21.056228142573467 120.40366388991222 0 0 0
5196 0 1 0 4.812187215575921 33.5664371057431 120.61445127294688 0 0 0
4940 0 1 0 0.49457060891991067 23.578291423543416 120.15370387387017 0 0 0
5177 0 1 0 1.2246703669967902 24.827854738734704 120.25262611403227 0 0 0
5200 0 1 0 4.852356758158669 36.00344220762716 120.78096706529634 0 0 0
4944 0 1 0 0.5367033099074296 26.121840623835876 120.3719748535948 0 0 0
5179 0 1 0 3.4402327343959396 23.58598912840381 120.2755877508138 0 0 0
5178 0 1 0 2.6436562640878924 24.797499638232402 120.25451165787443 0 0 0
5183 0 1 0 3.3836048033708828 26.069493244527283 120.28474373119388 0 0 0
5417 0 1 0 5.56824849946907 24.785525831619264 120.26809244500578 0 0 0
5180 0 1 0 4.9032916694019795 23.56913444659867 120.29030630694099 0 0 0
5184 0 1 0 4.8457298349421105 26.040189734823063 120.30483801495909 0 0 0
5418 0 1 0 7.02179575401351 24.78997989406252 120.24913343229386 0 0 0
5419 0 1 0 7.767311995797982 23.50940710661306 120.35664288324014 0 0 0
5423 0 1 0 7.7309713428744535 26.068487671372512 120.25927342762559 0 0 0
5434 0 1 0 7.041186862883613 34.78836783276837 120.65143085513034 0 0 0
5181 0 1 0 1.2724149107853975 27.321818969854576 120.29903638087099 0 0 0
4948 0 1 0 0.5341248751047994 28.56724387987512 120.09559081206461 0 0 0
5185 0 1 0 1.26164824256504 29.80033192248299 120.01917831278911 0 0 0
5439 0 1 0 7.73953481137003 36.006715894570235 120.64683459596344 0 0 0
4952 0 1 0 0.5258368787649075 31.069911883373948 119.98733353404461 0 0 0
5187 0 1 0 3.38103216179242 28.54616858168532 120.18637816574685 0 0 0
5182 0 1 0 2.673245693278668 27.302765534511458 120.25425035256369 0 0 0
5186 0 1 0 2.702825604609328 29.787235894884272 120.08515754171103 0 0 0
5191 0 1 0 3.4190075071145998 31.064936914188177 120.2443558788756 0 0 0
5427 0 1 0 7.762725015515649 28.511959433013796 120.26638411151043 0 0 0
5192 0 1 0 4.846545298301121 31.025328541036817 120.3946038137168 0 0 0
5421 0 1 0 5.596625245290684 27.323111126001997 120.36715850677547 0 0 0
5425 0 1 0 5.564292851793913 29.82739896436992 120.30635344005287 0 0 0
5188 0 1 0 4.869256817774423 28.558905284671994 120.26804377698062 0 0 0
5422 0 1 0 7.000777053993769 27.2896270597973 120.31130123594691 0 0 0
5426 0 1 0 7.03680678023939 29.791165380350797 120.36824362281577 0 0 0
5431 0 1 0 7.747192886154543 30.989451972919927 120.56387516770872 0 0 0
5199 0 1 0 3.4213776567771625 36.06247235120701 120.79644705285524 0 0 0
5195 0 1 0 3.4137146581297717 33.48943033044839 120.47498700915393 0 0 0
5193 0 1 0 1.2346454882681823 34.76663443448717 120.46550071224254 0 0 0
5429 0 1 0 5.550414845080332 32.301900370026964 120.4610060607155 0 0 0
4956 0 1 0 0.5181893448593065 33.54940932632912 120.24002151943633 0 0 0
5189 0 1 0 1.2237207699034742 32.31486052087668 120.1189028147017 0 0 0
5194 0 1 0 2.6724965493195083 34.755348566412174 120.5153873521438 0 0 0
5190 0 1 0 2.6742590526839263 32.31744178048279 120.22032221165733 0 0 0
5430 0 1 0 7.033356310311788 32.23880857584247 120.54242854791472 0 0 0
4960 0 1 0 0.5237081501422038 36.02488977935533 120.71358293686093 0 0 0
5424 0 1 0 9.154050589056775 26.05673641385697 120.27703245537892 0 0 0
5436 0 1 0 9.25324939006373 33.49454441311358 120.65748496570035 0 0 0
5416 0 1 0 9.249783094488677 21.050931630572727 120.24793768493078 0 0 0
5420 0 1 0 9.180634164297047 23.54753296531227 120.29645758443073 0 0 0
5198 0 1 0 2.7056064730734857 37.34614906435512 120.79520708572812 0 0 0
5437 0 1 0 5.589244396984984 37.308790197809614 120.73700555144922 0 0 0
5197 0 1 0 1.2379581434553293 37.25083887360554 120.73612701879186 0 0 0
5224 0 1 0 4.7978133072220475 50.98837328755356 120.39627711787872 0 0 0
4964 0 1 0 0.5261319037749147 38.502016326184346 120.8417849722 0 0 0
5464 0 1 0 9.16341215254701 51.05175635962495 120.54689654920324 0 0 0
5201 0 1 0 1.1982492259948367 39.76441744619581 120.98265727479776 0 0 0
5203 0 1 0 3.38170968930359 38.533152641164634 120.76883712857196 0 0 0
5468 0 1 0 9.16473490673384 53.54145501970678 120.62865194144017 0 0 0
5202 0 1 0 2.654185859444762 39.774997627270636 120.90163601477907 0 0 0
5461 0 1 0 5.570157346102294 52.27858584904309 120.48639723470026 0 0 0
4968 0 1 0 0.5212565080275632 41.06924039925006 120.87607647664196 0 0 0
5207 0 1 0 3.3900473978269314 41.05241842496231 120.77448870715166 0 0 0
5441 0 1 0 5.55792003254103 39.74223929902188 120.64914708238939 0 0 0
5204 0 1 0 4.82460398574521 38.52811469217013 120.75985341458284 0 0 0
5471 0 1 0 7.723730293783262 56.035846926283085 120.70933088296985 0 0 0
5442 0 1 0 7.023175373316655 39.74355484818536 120.5921212545396 0 0 0
5452 0 1 0 9.139616252117632 43.4699178287765 120.4556067084827 0 0 0
5443 0 1 0 7.731173105840175 38.524949617866945 120.54177369713098 0 0 0
5208 0 1 0 4.8369069539477785 40.98316462405787 120.71747620317151 0 0 0
5447 0 1 0 7.7554234691425945 41.01164814618402 120.54897481527243 0 0 0
5228 0 1 0 4.812873103836512 53.52216448882777 120.5207523757164 0 0 0
5205 0 1 0 1.2501035098018127 42.33518868973748 120.81695079528535 0 0 0
4972 0 1 0 0.5405471293690116 43.60720588747616 120.86033074064082 0 0 0
5209 0 1 0 1.23770930911059 44.791545393716525 120.71135324126388 0 0 0
5211 0 1 0 3.386543701130283 43.5825486426439 120.69054043048592 0 0 0
5206 0 1 0 2.6791816138174975 42.31216463998309 120.69256072950823 0 0 0
5210 0 1 0 2.645231338034776 44.80072015874792 120.62939369548168 0 0 0
4976 0 1 0 0.49699869121998 45.971912681141845 120.60770924906062 0 0 0
5215 0 1 0 3.3901269413123707 46.01142596496977 120.50026363610375 0 0 0
5212 0 1 0 4.835708240718807 43.52115770262808 120.63743769881872 0 0 0
5445 0 1 0 5.538342103791414 42.22158746984822 120.63234492373783 0 0 0
5449 0 1 0 5.540490997649255 44.74433726947502 120.43865635580764 0 0 0
5450 0 1 0 6.949202456170568 44.7515422634315 120.38352031521148 0 0 0
5446 0 1 0 6.985648335980314 42.245217850451176 120.51524511945445 0 0 0
5216 0 1 0 4.853968254572289 45.999118217141636 120.46391900111355 0 0 0
5451 0 1 0 7.689937961589604 43.516963912117404 120.44336085367817 0 0 0
5463 0 1 0 7.700759315232293 51.03964199143078 120.50380634440548 0 0 0
5213 0 1 0 1.1586741118167372 47.282047597329786 120.53966483190061 0 0 0
5467 0 1 0 7.731362494176808 53.56537173153727 120.63299898813726 0 0 0
4980 0 1 0 0.45684634463216156 48.513566980011 120.4306961198344 0 0 0
5217 0 1 0 1.1817459512944335 49.728989055013955 120.36871395167057 0 0 0
5218 0 1 0 2.670457617937783 49.74527065525043 120.3899507266535 0 0 0
5214 0 1 0 2.619772520892639 47.25344148942226 120.518084124764 0 0 0
5219 0 1 0 3.380468690368011 48.4891117704725 120.48717173503549 0 0 0
5455 0 1 0 7.710896062198628 46.0283914699747 120.30148257800707 0 0 0
5457 0 1 0 5.531538717048096 49.73576816999353 120.38347645340065 0 0 0
5220 0 1 0 4.80523299624071 48.47133133838778 120.47111155506244 0 0 0
5453 0 1 0 5.559632822763184 47.25782246410227 120.40900949290794 0 0 0
5458 0 1 0 6.999835757292135 49.77854214320899 120.44048940946524 0 0 0
5454 0 1 0 6.974433140197571 47.258733193981165 120.3418434424393 0 0 0
5459 0 1 0 7.763724054676557 48.55136384269196 120.42342963918998 0 0 0
5226 0 1 0 2.6779688699955186 54.73168398544113 120.51753902539372 0 0 0
5227 0 1 0 3.3743768615638094 53.50957890814543 120.53284888529302 0 0 0
4988 0 1 0 0.47651596326734763 53.52045543776009 120.39398695964357 0 0 0
5462 0 1 0 7.000320027160841 52.31673381827624 120.48331814381226 0 0 0
5466 0 1 0 6.972106840555418 54.79294473679207 120.6641676544269 0 0 0
5221 0 1 0 1.194672785690881 52.268174465379246 120.50027560850508 0 0 0
4984 0 1 0 0.4825579848673311 51.00043603843512 120.3441498652254 0 0 0
5222 0 1 0 2.658434935943036 52.29303911759143 120.47535406521612 0 0 0
5223 0 1 0 3.345340452949478 51.02515326102045 120.32597005305826 0 0 0
5225 0 1 0 1.2306157460498988 54.71892873341522 120.511599226063 0 0 0
5465 0 1 0 5.5193263058100115 54.78886787152356 120.58721506887726 0 0 0
5444 0 1 0 9.168372343410557 38.517219478619005 120.5268806198448 0 0 0
5448 0 1 0 9.182347742075878 41.016299638760415 120.52190468752988 0 0 0
5456 0 1 0 9.179644220830218 46.024900822104485 120.48861603167606 0 0 0
5460 0 1 0 9.21085840363593 48.523486514837515 120.49086331220118 0 0 0
5232 0 1 0 4.81787781957516 56.06688772024479 120.6900114725368 0 0 0
5231 0 1 0 3.403978544523173 56.02111185760059 120.6296067376632 0 0 0
4992 0 1 0 0.4721353908673595 55.98673301759364 120.54822400702028 0 0 0
5472 0 1 0 9.139897723098407 56.01797517935869 120.69659790453974 0 0 0
5495 0 1 0 7.683003190339935 70.9870763437016 120.53121872105291 0 0 0
5229 0 1 0 1.2290221282348557 57.22163602245453 120.63237369509623 0 0 0
5498 0 1 0 6.969719978562387 74.74660533569752 120.58028365304934 0 0 0
5260 0 1 0 4.82219974960632 73.44010329060858 120.49862450508836 0 0 0
4996 0 1 0 0.5212836930017394 58.480442982732285 120.64556698501687 0 0 0
5257 0 1 0 1.131738649546385 74.62216790848821 120.58859328796295 0 0 0
5230 0 1 0 2.7184500942078302 57.24567925525433 120.70503478673947 0 0 0
5235 0 1 0 3.3959105260515834 58.53122996206611 120.78909824644924 0 0 0
5233 0 1 0 1.2833922436276204 59.692310119787145 120.69497754361304 0 0 0
5234 0 1 0 2.703733071418704 59.743557638469674 120.79096144831595 0 0 0
5497 0 1 0 5.540829432740764 74.73035473478866 120.46782419123176 0 0 0
5469 0 1 0 5.567639030409856 57.28985741647432 120.74399962681959 0 0 0
5236 0 1 0 4.886303491708654 58.52665406273935 120.68693139676996 0 0 0
5470 0 1 0 6.966070694510166 57.30080738039266 120.75657912744138 0 0 0
5473 0 1 0 5.564160239950825 59.749179491821685 120.55565412079768 0 0 0
5474 0 1 0 7.005455794441255 59.7894435858776 120.69230142265805 0 0 0
5475 0 1 0 7.705116971029452 58.537007648430524 120.73210378114199 0 0 0
5476 0 1 0 9.115756991034285 58.550147982168895 120.71901678529882 0 0 0
5256 0 1 0 4.8153500938916745 70.90409332658307 120.53055138811823 0 0 0
5000 0 1 0 0.5571943133143042 60.93192281246848 120.63158060087214 0 0 0
5237 0 1 0 1.2055583206039417 62.22876805406221 120.71746305016158 0 0 0
5493 0 1 0 5.516983682848674 72.17219923024211 120.58993281952225 0 0 0
5004 0 1 0 0.466287734589202 63.448638029032416 120.72675831691926 0 0 0
5238 0 1 0 2.6279686445585755 62.21507513862922 120.62822930068754 0 0 0
5239 0 1 0 3.4002602473234163 60.987030759324014 120.60218127680884 0 0 0
5243 0 1 0 3.372372798505199 63.43073985106805 120.58803058990105 0 0 0
5241 0 1 0 1.2234628277697472 64.67632148389393 120.73989475511466 0 0 0
5242 0 1 0 2.673456834045392 64.65782989620797 120.64166537709082 0 0 0
5483 0 1 0 7.711596069957862 63.48783189914229 120.58095355266207 0 0 0
5477 0 1 0 5.541475265169009 62.20806228240113 120.5580457549984 0 0 0
5240 0 1 0 4.843482471406499 60.96147209165252 120.55141891229074 0 0 0
5244 0 1 0 4.796688590298402 63.41456435424311 120.59360549585409 0 0 0
5478 0 1 0 6.981676425168629 62.23231201760654 120.60184909807394 0 0 0
5482 0 1 0 7.01484322893411 64.73603449922419 120.53343570729302 0 0 0
5479 0 1 0 7.706207939482191 61.00950885632572 120.66275535085609 0 0 0
5494 0 1 0 6.967103750699785 72.25839580661143 120.62372694319036 0 0 0
5008 0 1 0 0.4376271603370071 65.8876028348749 120.7426815167623 0 0 0
5245 0 1 0 1.2257119575119 67.17443764219067 120.6551730374227 0 0 0
5490 0 1 0 7.000245667497904 69.74895597679017 120.50926474091226 0 0 0
5012 0 1 0 0.5339804173373041 68.42649747471587 120.66813958896553 0 0 0
5251 0 1 0 3.3881128120684574 68.43999938644822 120.56144044819655 0 0 0
5247 0 1 0 3.400886914609815 65.89832066158324 120.56235882061608 0 0 0
5246 0 1 0 2.673586756294077 67.1388672201111 120.59034212194241 0 0 0
5491 0 1 0 7.7183618602277315 68.41523594919171 120.46511850805761 0 0 0
5487 0 1 0 7.6841730430815725 65.98670703897247 120.54268879575721 0 0 0
5252 0 1 0 4.844777558707257 68.41663074513173 120.53006862337595 0 0 0
5485 0 1 0 5.473733064406794 67.20134916300984 120.52723843300767 0 0 0
5481 0 1 0 5.549200730043646 64.69295548417851 120.56557348922672 0 0 0
5248 0 1 0 4.79386798645815 65.96562050002642 120.53097940763544 0 0 0
5486 0 1 0 6.959452845964103 67.18651618713761 120.5325827871329 0 0 0
5254 0 1 0 2.6331798479616273 72.17298147570646 120.60423828980552 0 0 0
5020 0 1 0 0.4769066503589577 73.3715614768423 120.5829239947536 0 0 0
5253 0 1 0 1.203479089141007 72.13167950049832 120.65555790266134 0 0 0
5499 0 1 0 7.677440830557363 73.46906146300907 120.6318271763898 0 0 0
5016 0 1 0 0.49274285119388195 70.90698144539229 120.6920819947282 0 0 0
5249 0 1 0 1.2825175184088575 69.62885660710957 120.64661973473528 0 0 0
5255 0 1 0 3.3939314638272537 70.9481347322713 120.48328915501797 0 0 0
5250 0 1 0 2.678345269896033 69.67269479268656 120.61751601143925 0 0 0
5259 0 1 0 3.35287828117082 73.42555053347077 120.53094177836626 0 0 0
5489 0 1 0 5.555963877914454 69.6709498559532 120.52093060310231 0 0 0
5480 0 1 0 9.159321463263355 61.01167716702634 120.62196531897288 0 0 0
5488 0 1 0 9.187653014601933 66.00953212244436 120.5253860829026 0 0 0
5484 0 1 0 9.134412169431934 63.549588771474376 120.60180159224744 0 0 0
5492 0 1 0 9.132473055910715 68.47409194791997 120.48748219180798 0 0 0
5496 0 1 0 9.066333384107756 70.95276388506561 120.5503337070131 0 0 0
5500 0 1 0 9.112713839927386 73.44518583081616 120.51363335252474 0 0 0
5258 0 1 0 2.644445682129763 74.68206513290998 120.51611027711284 0 0 0
5048 0 1 0 4.905574581089956 90.86516322928132 120.33446897597707 0 -1 0
5024 0 1 0 0.47800467044685285 75.96133014895474 120.59475175009109 0 0 0
5292 0 1 0 9.173545439078014 93.36109371726747 120.334972995422 0 -1 0
5261 0 1 0 1.2035699647744504 77.19326714257225 120.41929625361175 0 0 0
5520 0 1 0 9.133374133921164 85.89158846591626 120.32845938545348 0 0 0
5263 0 1 0 3.3652987668022862 75.87259302056572 120.31806939149332 0 0 0
5262 0 1 0 2.6195389445202433 77.19277606930665 120.32382296327638 0 0 0
5282 0 1 0 6.973815479625001 89.59383684742774 120.55420575584816 0 -1 0
5028 0 1 0 0.4836264842565091 78.4096152960575 120.39812049057385 0 0 0
5267 0 1 0 3.3236339612391785 78.37734725022105 120.38656471427339 0 0 0
5264 0 1 0 4.791905964305305 75.94959132192062 120.32433727673263 0 0 0
5284 0 1 0 9.103605948155712 88.37873080379562 120.41414397743523 0 -1 0
5501 0 1 0 5.538142083263671 77.19389905106318 120.37159489545922 0 0 0
5288 0 1 0 9.128132373471226 90.84481448750543 120.38172869514996 0 -1 0
5502 0 1 0 7.005372607637655 77.18807108186701 120.3877552022956 0 0 0
5507 0 1 0 7.714768598962079 78.4319319664758 120.49379298802448 0 0 0
5268 0 1 0 4.814758901511157 78.43281486654566 120.38142595942158 0 0 0
5503 0 1 0 7.650123434737451 75.93382599309446 120.53451907452482 0 0 0
5281 0 1 0 5.5229026802800885 89.61284218155278 120.50378188225027 0 -1 0
5032 0 1 0 0.45474229929468457 80.91904707023888 120.39711790022673 0 0 0
5265 0 1 0 1.1885387838345702 79.70080088075153 120.41577090141894 0 0 0
5269 0 1 0 1.1753179755254473 82.14361725377442 120.3787234026722 0 0 0
5266 0 1 0 2.6237811150180383 79.63072028801234 120.45326131700746 0 0 0
5271 0 1 0 3.3772391053030986 80.87795605359709 120.40099817478715 0 0 0
5270 0 1 0 2.654305743766414 82.10776608723856 120.41674025676592 0 0 0
5275 0 1 0 3.372511759619499 83.39976871495543 120.54211650278737 0 0 0
5515 0 1 0 7.706491461452239 83.37800978290537 120.55827247173075 0 0 0
5511 0 1 0 7.729418342728771 80.84377667530461 120.51827774633263 0 0 0
5505 0 1 0 5.503286533083346 79.68101120890071 120.43502758795601 0 0 0
5272 0 1 0 4.829326625520425 80.91870244141158 120.49248376663797 0 0 0
5509 0 1 0 5.560611869862714 82.14919433926744 120.55625888629987 0 0 0
5510 0 1 0 7.005927736004949 82.13709344895018 120.5351011279882 0 0 0
5506 0 1 0 6.990420119812029 79.62616910578265 120.4713127832108 0 0 0
5276 0 1 0 4.846586778985823 83.3927070260265 120.57657196578042 0 0 0
5287 0 1 0 7.689361369335134 90.8223663964138 120.46375887619718 0 -1 0
5273 0 1 0 1.212142285632586 84.64196555198295 120.50141121532555 0 0 0
5036 0 1 0 0.4934902535030318 83.36840501774626 120.47800385489154 0 0 0
5285 0 1 0 5.556000780220061 92.11837706535479 120.36404534605578 0 -1 0
5040 0 1 0 0.4750640060286659 85.92802539784947 120.51973932769499 0 0 0
5277 0 1 0 1.1664552851874161 87.17731507999741 120.43785712948336 0 0 0
5278 0 1 0 2.59472381568434 87.10876022719026 120.43869911264186 0 0 0
5274 0 1 0 2.6500209175988934 84.62448626498644 120.56742280560806 0 0 0
5279 0 1 0 3.332361859098602 85.84403303862257 120.53809213073217 0 0 0
5519 0 1 0 7.67632914640133 85.88494325935122 120.4061871793102 0 0 0
5517 0 1 0 5.530716229035256 87.11832247743017 120.46012475916899 0 0 0
5513 0 1 0 5.500649936692546 84.65545885489756 120.62994339493198 0 0 0
5280 0 1 0 4.789899373356548 85.84962900644688 120.47667296441242 0 0 0
5514 0 1 0 6.954496520633733 84.64998233859038 120.49371523063353 0 0 0
5518 0 1 0 7.007706652458083 87.12352478391729 120.39018185206987 0 0 0
5045 0 1 0 1.2251549895251097 92.18744723085932 120.30490068826533 0 -1 0
5046 0 1 0 2.6586634670080564 92.1151106847904 120.38156270927661 0 -1 0
4808 0 1 0 0.48345831825890445 90.92181319955839 120.26246915645791 0 -1 0
5044 0 1 0 4.801112232263327 88.35589997578288 120.49805320712716 0 -1 0
5286 0 1 0 6.962706542317595 92.10124245356253 120.3119178656994 0 -1 0
4804 0 1 0 0.447208444988123 88.45021936770786 120.37097206409912 0 -1 0
5041 0 1 0 1.2154991603118304 89.67400681176855 120.36754067509993 0 -1 0
5043 0 1 0 3.3720979990307614 88.38762202422946 120.39565946535978 0 -1 0
5042 0 1 0 2.714423717882768 89.64080306819494 120.34930478925003 0 -1 0
5047 0 1 0 3.4107826950749325 90.8961554771274 120.31947228445941 0 -1 0
5283 0 1 0 7.689937987585114 88.34877813068583 120.39087306256364 0 -1 0
5512 0 1 0 9.157063760825388 80.89499034472223 120.40819861204935 0 0 0
5504 0 1 0 9.158041847804997 75.9292692519419 120.49788856370874 0 0 0
5516 0 1 0 9.119524864612487 83.36557304111241 120.49719851651011 0 0 0
5508 0 1 0 9.212865680537766 78.43233974751823 120.48249891085854 0 0 0
5052 0 1 0 4.758867441869567 93.32805909114047 120.30933540389151 0 -1 0
5291 0 1 0 7.716647497413188 93.36155276124619 120.2318265564477 0 -1 0
4812 0 1 0 0.4839631462675685 93.37045626380315 120.29678343540813 0 -1 0
5051 0 1 0 3.3674728371878793 93.36260548076693 120.35406014957854 0 -1 0
5314 0 1 0 6.96132719477536 109.580438822878 120.2381275682647 0 -1 0
5049 0 1 0 1.1990023781437267 94.58851555068202 120.39635765268355 0 -1 0
5316 0 1 0 9.153618849472595 108.35526037679627 119.91780779126701 0 -1 0
5315 0 1 0 7.685290281582177 108.36345977918485 120.05174977761416 0 -1 0
4816 0 1 0 0.47461007442189374 95.85356657127839 120.54673436538829 0 -1 0
5320 0 1 0 9.124834310128417 110.8428955519417 120.15154307988334 0 -1 0
5050 0 1 0 2.578307728992534 94.55641924035251 120.40782976709204 0 -1 0
5055 0 1 0 3.340424396354763 95.84230183629062 120.4740841246222 0 -1 0
5053 0 1 0 1.1799095482523922 97.11303762873696 120.51441931246539 0 -1 0
5054 0 1 0 2.6342780317301244 97.10794198038055 120.44392314026773 0 -1 0
5312 0 1 0 9.113837434976874 105.83981577351672 119.90637253116833 0 -1 0
5056 0 1 0 4.794843834562887 95.81386419248817 120.35223586820844 0 -1 0
5289 0 1 0 5.491236804976323 94.55643914510462 120.19863883578272 0 -1 0
5290 0 1 0 6.9324342912858645 94.54023578591965 120.12313903927827 0 -1 0
5293 0 1 0 5.4996705358898 97.04473256141347 120.18915868837426 0 -1 0
5294 0 1 0 6.911186644532934 97.07288873249325 120.1311950624417 0 -1 0
5295 0 1 0 7.66545501761895 95.83392537002176 120.19852675619222 0 -1 0
5296 0 1 0 9.110702370465486 95.81523126207905 120.10522290031481 0 -1 0
5309 0 1 0 5.49662202265119 107.1299181521103 120.13167158270771 0 -1 0
5057 0 1 0 1.1979997110117806 99.57361308231741 120.37500817297914 0 -1 0
4820 0 1 0 0.42635182401322347 98.3343694016814 120.43910979115944 0 -1 0
5076 0 1 0 4.783004292245798 108.39525420440758 120.2496519275156 0 -1 0
4824 0 1 0 0.4561830055299628 100.80168294969212 120.38570277551983 0 -1 0
5058 0 1 0 2.6566992929876316 99.58373308488505 120.41961445377895 0 -1 0
5059 0 1 0 3.378363048578926 98.36643733121151 120.33246947892572 0 -1 0
5063 0 1 0 3.3463868892257183 100.85693411527082 120.35782457677904 0 -1 0
5062 0 1 0 2.631258220288303 102.11481919430447 120.42065273344319 0 -1 0
5303 0 1 0 7.661503821309091 100.79616216305881 120.06764710061499 0 -1 0
5299 0 1 0 7.645268982834842 98.32024129971597 120.08134590726556 0 -1 0
5297 0 1 0 5.472132321371989 99.55486044018475 120.17960539743811 0 -1 0
5060 0 1 0 4.781726588453588 98.31899626358815 120.1907530375495 0 -1 0
5064 0 1 0 4.790480298038602 100.81242010161954 120.20954123296256 0 -1 0
5298 0 1 0 6.91812757825466 99.58256779976742 120.19316163502768 0 -1 0
5301 0 1 0 5.507730120194636 102.05945521894276 120.22062454930263 0 -1 0
5302 0 1 0 6.930510369532958 102.05546524471526 120.11224266940388 0 -1 0
5313 0 1 0 5.549591365256007 109.56834345270245 120.36565873287951 0 -1 0
5061 0 1 0 1.199081002297793 102.07741775473463 120.36590700554989 0 -1 0
5065 0 1 0 1.207863417427891 104.55527715268748 120.28027779154407 0 -1 0
4828 0 1 0 0.48163427912383305 103.32313941610013 120.36976469305384 0 -1 0
5319 0 1 0 7.677007024396578 110.80343349798594 120.22929894669716 0 -1 0
4832 0 1 0 0.5263453493253273 105.86541493819892 120.16002218256888 0 -1 0
5071 0 1 0 3.3669501907055794 105.82595185681981 120.12520675558544 0 -1 0
5067 0 1 0 3.388591558778373 103.31465838259835 120.28120603951112 0 -1 0
5066 0 1 0 2.6504188834698272 104.5599271306763 120.18485017914668 0 -1 0
5311 0 1 0 7.665421186203436 105.82818564996929 120.06109138908552 0 -1 0
5072 0 1 0 4.775041530234562 105.84235190277094 120.08487671883647 0 -1 0
5305 0 1 0 5.521958228172622 104.55530583166939 120.09706642539696 0 -1 0
5068 0 1 0 4.81155331244688 103.3189017881858 120.24126822982491 0 -1 0
5306 0 1 0 6.964008907702579 104.51208927729739 120.0563252040554 0 -1 0
5307 0 1 0 7.642356469081284 103.2757929259306 119.99259405446327 0 -1 0
5075 0 1 0 3.372497171481747 108.29549827206553 120.17376827803855 0 -1 0
5074 0 1 0 2.6912849471544518 109.54293177850886 120.18571419196493 0 -1 0
5310 0 1 0 6.947032519381125 107.05789684543548 120.05888746759477 0 -1 0
5073 0 1 0 1.2484115577335202 109.59587945328191 120.04055435874288 0 -1 0
4836 0 1 0 0.5034010243731406 108.32294931086284 119.98160256055249 0 -1 0
5069 0 1 0 1.2584795368680317 107.10571475357499 120.10747884342607 0 -1 0
5070 0 1 0 2.6496359842973343 107.06613946708369 120.19856222851489 0 -1 0
5080 0 1 0 4.841727422063917 110.78388435094469 120.45073086580587 0 -1 0
4840 0 1 0 0.5013331044733444 110.8156886128398 119.98165924172915 0 -1 0
5079 0 1 0 3.4201519682283763 110.79050174713988 120.24675062873793 0 -1 0
5308 0 1 0 9.135593905487848 103.31138511683871 119.91510323709453 0 -1 0
5300 0 1 0 9.088122576994587 98.29552249105679 119.97780599598345 0 -1 0
5304 0 1 0 9.129591516693445 100.80236548509544 119.8825416859541 0 -1 0
5077 0 1 0 1.2448297627726812 112.07933619734936 120.12256576732375 0 -1 0
5318 0 1 0 6.916476044652823 112.02525844948606 120.30220255352334 0 -1 0
5078 0 1 0 2.6559844634575076 112.03238403143538 120.28404101273162 0 -1 0
5317 0 1 0 5.511267330659607 112.04015115435237 120.36409843799645 0 -1 0
5104 0 1 0 4.8538154579987145 125.78173526219152 119.90849614523391 0 -1 0
4844 0 1 0 0.5247383741466083 113.31024291486946 120.14372861208321 0 -1 0
4872 0 1 0 0.47185702879268426 130.78040681157506 119.7148903516182 0 -1 0
5081 0 1 0 1.2319922293086327 114.54653940600953 120.17762759970861 0 -1 0