(written by ASE)

11640 atoms
3 atom types

0.0      155.54807999999997  xlo xhi
0.0      149.67620976654908  ylo yhi
0.0      151.07316997686289  zlo zhi

Masses

     1      12.010999996910238 # C
     2      1.0079999997406979 # H
     3      15.998999995884349 # O

Atoms # full

     1   0   1   0.0                       0                       0                       0
     2   0   1   0.0      1.4402599999999999                       0                       0
     3   0   1   0.0      2.1603899999999996     -1.2473017480545714                       0
     4   0   1   0.0      3.6006499999999995     -1.2473017480545714                       0
     5   0   1   0.0                       0      2.4946034961091508                       0
     6   0   1   0.0      1.4402599999999999      2.4946034961091508                       0
     7   0   1   0.0      2.1603899999999996      1.2473017480545754                       0
     8   0   1   0.0      3.6006499999999995      1.2473017480545754                       0
     9   0   1   0.0                       0      4.9892069922183016                       0
    10   0   1   0.0      1.4402599999999999      4.9892069922183016                       0
    11   0   1   0.0      2.1603899999999996      3.7419052441637262                       0
    12   0   1   0.0      3.6006499999999995      3.7419052441637262                       0
    13   0   1   0.0                       0      7.4838104883274523                       0
    14   0   1   0.0      1.4402599999999999      7.4838104883274523                       0
    15   0   1   0.0      2.1603899999999996      6.2365087402728774                       0
    16   0   1   0.0      3.6006499999999995      6.2365087402728774                       0
    17   0   1   0.0                       0      9.9784139844366031                       0
    18   0   1   0.0      1.4402599999999999      9.9784139844366031                       0
    19   0   1   0.0      2.1603899999999996      8.7311122363820282                       0
    20   0   1   0.0      3.6006499999999995      8.7311122363820282                       0
    21   0   1   0.0                       0      12.473017480545757                       0
    22   0   1   0.0      1.4402599999999999      12.473017480545757                       0
    23   0   1   0.0      2.1603899999999996       11.22571573249118                       0
    24   0   1   0.0      3.6006499999999995       11.22571573249118                       0
    25   0   1   0.0                       0      14.967620976654905                       0
    26   0   1   0.0      1.4402599999999999      14.967620976654905                       0
    27   0   1   0.0      2.1603899999999996       13.72031922860033                       0
    28   0   1   0.0      3.6006499999999995       13.72031922860033                       0
    29   0   1   0.0                       0      17.462224472764056                       0
    30   0   1   0.0      1.4402599999999999      17.462224472764056                       0
    31   0   1   0.0      2.1603899999999996      16.214922724709485                       0
    32   0   1   0.0      3.6006499999999995      16.214922724709485                       0
    33   0   1   0.0                       0      19.956827968873206                       0
    34   0   1   0.0      1.4402599999999999      19.956827968873206                       0
    35   0   1   0.0      2.1603899999999996      18.709526220818635                       0
    36   0   1   0.0      3.6006499999999995      18.709526220818635                       0
    37   0   1   0.0                       0       22.45143146498236                       0
    38   0   1   0.0      1.4402599999999999       22.45143146498236                       0
    39   0   1   0.0      2.1603899999999996      21.204129716927788                       0
    40   0   1   0.0      3.6006499999999995      21.204129716927788                       0
    41   0   1   0.0                       0      24.946034961091513                       0
    42   0   1   0.0      1.4402599999999999      24.946034961091513                       0
    43   0   1   0.0      2.1603899999999996      23.698733213036938                       0
    44   0   1   0.0      3.6006499999999995      23.698733213036938                       0
    45   0   1   0.0                       0      27.440638457200663                       0
    46   0   1   0.0      1.4402599999999999      27.440638457200663                       0
    47   0   1   0.0      2.1603899999999996      26.193336709146084                       0
    48   0   1   0.0      3.6006499999999995      26.193336709146084                       0
    49   0   1   0.0                       0      29.935241953309809                       0
    50   0   1   0.0      1.4402599999999999      29.935241953309809                       0
    51   0   1   0.0      2.1603899999999996      28.687940205255238                       0
    52   0   1   0.0      3.6006499999999995      28.687940205255238                       0
    53   0   1   0.0                       0       32.42984544941897                       0
    54   0   1   0.0      1.4402599999999999       32.42984544941897                       0
    55   0   1   0.0      2.1603899999999996      31.182543701364391                       0
    56   0   1   0.0      3.6006499999999995      31.182543701364391                       0
    57   0   1   0.0                       0      34.924448945528113                       0
    58   0   1   0.0      1.4402599999999999      34.924448945528113                       0
    59   0   1   0.0      2.1603899999999996      33.677147197473538                       0
    60   0   1   0.0      3.6006499999999995      33.677147197473538                       0
    61   0   1   0.0                       0       37.41905244163727                       0
    62   0   1   0.0      1.4402599999999999       37.41905244163727                       0
    63   0   1   0.0      2.1603899999999996      36.171750693582695                       0
    64   0   1   0.0      3.6006499999999995      36.171750693582695                       0
    65   0   1   0.0                       0      39.913655937746412                       0
    66   0   1   0.0      1.4402599999999999      39.913655937746412                       0
    67   0   1   0.0      2.1603899999999996      38.666354189691837                       0
    68   0   1   0.0      3.6006499999999995      38.666354189691837                       0
    69   0   1   0.0                       0      42.408259433855569                       0
    70   0   1   0.0      1.4402599999999999      42.408259433855569                       0
    71   0   1   0.0      2.1603899999999996       41.16095768580098                       0
    72   0   1   0.0      3.6006499999999995       41.16095768580098                       0
    73   0   1   0.0                       0      44.902862929964719                       0
    74   0   1   0.0      1.4402599999999999      44.902862929964719                       0
    75   0   1   0.0      2.1603899999999996      43.655561181910144                       0
    76   0   1   0.0      3.6006499999999995      43.655561181910144                       0
    77   0   1   0.0                       0      47.397466426073862                       0
    78   0   1   0.0      1.4402599999999999      47.397466426073862                       0
    79   0   1   0.0      2.1603899999999996      46.150164678019294                       0
    80   0   1   0.0      3.6006499999999995      46.150164678019294                       0
    81   0   1   0.0                       0      49.892069922183026                       0
    82   0   1   0.0      1.4402599999999999      49.892069922183026                       0
    83   0   1   0.0      2.1603899999999996      48.644768174128444                       0
    84   0   1   0.0      3.6006499999999995      48.644768174128444                       0
    85   0   1   0.0                       0      52.386673418292162                       0
    86   0   1   0.0      1.4402599999999999      52.386673418292162                       0
    87   0   1   0.0      2.1603899999999996      51.139371670237594                       0
    88   0   1   0.0      3.6006499999999995      51.139371670237594                       0
    89   0   1   0.0                       0      54.881276914401326                       0
    90   0   1   0.0      1.4402599999999999      54.881276914401326                       0
    91   0   1   0.0      2.1603899999999996      53.633975166346744                       0
    92   0   1   0.0      3.6006499999999995      53.633975166346744                       0
    93   0   1   0.0                       0      57.375880410510476                       0
    94   0   1   0.0      1.4402599999999999      57.375880410510476                       0
    95   0   1   0.0      2.1603899999999996      56.128578662455901                       0
    96   0   1   0.0      3.6006499999999995      56.128578662455901                       0
    97   0   1   0.0                       0      59.870483906619619                       0
    98   0   1   0.0      1.4402599999999999      59.870483906619619                       0
    99   0   1   0.0      2.1603899999999996      58.623182158565044                       0
   100   0   1   0.0      3.6006499999999995      58.623182158565044                       0
   101   0   1   0.0                       0      62.365087402728776                       0
   102   0   1   0.0      1.4402599999999999      62.365087402728776                       0
   103   0   1   0.0      2.1603899999999996      61.117785654674201                       0
   104   0   1   0.0      3.6006499999999995      61.117785654674201                       0
   105   0   1   0.0                       0       64.85969089883794                       0
   106   0   1   0.0      1.4402599999999999       64.85969089883794                       0
   107   0   1   0.0      2.1603899999999996      63.612389150783358                       0
   108   0   1   0.0      3.6006499999999995      63.612389150783358                       0
   109   0   1   0.0                       0      67.354294394947075                       0
   110   0   1   0.0      1.4402599999999999      67.354294394947075                       0
   111   0   1   0.0      2.1603899999999996      66.106992646892508                       0
   112   0   1   0.0      3.6006499999999995      66.106992646892508                       0
   113   0   1   0.0                       0      69.848897891056225                       0
   114   0   1   0.0      1.4402599999999999      69.848897891056225                       0
   115   0   1   0.0      2.1603899999999996      68.601596143001657                       0
   116   0   1   0.0      3.6006499999999995      68.601596143001657                       0
   117   0   1   0.0                       0      72.343501387165389                       0
   118   0   1   0.0      1.4402599999999999      72.343501387165389                       0
   119   0   1   0.0      2.1603899999999996      71.096199639110822                       0
   120   0   1   0.0      3.6006499999999995      71.096199639110822                       0
   121   0   1   0.0                       0      74.838104883274539                       0
   122   0   1   0.0      1.4402599999999999      74.838104883274539                       0
   123   0   1   0.0      2.1603899999999996      73.590803135219971                       0
   124   0   1   0.0      3.6006499999999995      73.590803135219971                       0
   125   0   1   0.0                       0      77.332708379383675                       0
   126   0   1   0.0      1.4402599999999999      77.332708379383675                       0
   127   0   1   0.0      2.1603899999999996      76.085406631329107                       0
   128   0   1   0.0      3.6006499999999995      76.085406631329107                       0
   129   0   1   0.0                       0      79.827311875492825                       0
   130   0   1   0.0      1.4402599999999999      79.827311875492825                       0
   131   0   1   0.0      2.1603899999999996      78.580010127438271                       0
   132   0   1   0.0      3.6006499999999995      78.580010127438271                       0
   133   0   1   0.0                       0      82.321915371601989                       0
   134   0   1   0.0      1.4402599999999999      82.321915371601989                       0
   135   0   1   0.0      2.1603899999999996      81.074613623547407                       0
   136   0   1   0.0      3.6006499999999995      81.074613623547407                       0
   137   0   1   0.0                       0      84.816518867711139                       0
   138   0   1   0.0      1.4402599999999999      84.816518867711139                       0
   139   0   1   0.0      2.1603899999999996      83.569217119656557                       0
   140   0   1   0.0      3.6006499999999995      83.569217119656557                       0
   141   0   1   0.0                       0      87.311122363820289                       0
   142   0   1   0.0      1.4402599999999999      87.311122363820289                       0
   143   0   1   0.0      2.1603899999999996      86.063820615765721                       0
   144   0   1   0.0      3.6006499999999995      86.063820615765721                       0
   145   0   1   0.0                       0      89.805725859929439                       0
   146   0   1   0.0      1.4402599999999999      89.805725859929439                       0
   147   0   1   0.0      2.1603899999999996      88.558424111874871                       0
   148   0   1   0.0      3.6006499999999995      88.558424111874871                       0
   149   0   1   0.0                       0      92.300329356038588                       0
   150   0   1   0.0      1.4402599999999999      92.300329356038588                       0
   151   0   1   0.0      2.1603899999999996      91.053027607984006                       0
   152   0   1   0.0      3.6006499999999995      91.053027607984006                       0
   153   0   1   0.0                       0      94.794932852147724                       0
   154   0   1   0.0      1.4402599999999999      94.794932852147724                       0
   155   0   1   0.0      2.1603899999999996      93.547631104093156                       0
   156   0   1   0.0      3.6006499999999995      93.547631104093156                       0
   157   0   1   0.0                       0      97.289536348256888                       0
   158   0   1   0.0      1.4402599999999999      97.289536348256888                       0
   159   0   1   0.0      2.1603899999999996       96.04223460020232                       0
   160   0   1   0.0      3.6006499999999995       96.04223460020232                       0
   161   0   1   0.0                       0      99.784139844366052                       0
   162   0   1   0.0      1.4402599999999999      99.784139844366052                       0
   163   0   1   0.0      2.1603899999999996      98.536838096311484                       0
   164   0   1   0.0      3.6006499999999995      98.536838096311484                       0
   165   0   1   0.0                       0      102.27874334047519                       0
   166   0   1   0.0      1.4402599999999999      102.27874334047519                       0
   167   0   1   0.0      2.1603899999999996      101.03144159242062                       0
   168   0   1   0.0      3.6006499999999995      101.03144159242062                       0
   169   0   1   0.0                       0      104.77334683658432                       0
   170   0   1   0.0      1.4402599999999999      104.77334683658432                       0
   171   0   1   0.0      2.1603899999999996      103.52604508852977                       0
   172   0   1   0.0      3.6006499999999995      103.52604508852977                       0
   173   0   1   0.0                       0      107.26795033269349                       0
   174   0   1   0.0      1.4402599999999999      107.26795033269349                       0
   175   0   1   0.0      2.1603899999999996      106.02064858463892                       0
   176   0   1   0.0      3.6006499999999995      106.02064858463892                       0
   177   0   1   0.0                       0      109.76255382880265                       0
   178   0   1   0.0      1.4402599999999999      109.76255382880265                       0
   179   0   1   0.0      2.1603899999999996      108.51525208074808                       0
   180   0   1   0.0      3.6006499999999995      108.51525208074808                       0
   181   0   1   0.0                       0       112.2571573249118                       0
   182   0   1   0.0      1.4402599999999999       112.2571573249118                       0
   183   0   1   0.0      2.1603899999999996      111.00985557685722                       0
   184   0   1   0.0      3.6006499999999995      111.00985557685722                       0
   185   0   1   0.0                       0      114.75176082102095                       0
   186   0   1   0.0      1.4402599999999999      114.75176082102095                       0
   187   0   1   0.0      2.1603899999999996      113.50445907296638                       0
   188   0   1   0.0      3.6006499999999995      113.50445907296638                       0
   189   0   1   0.0                       0      117.24636431713009                       0
   190   0   1   0.0      1.4402599999999999      117.24636431713009                       0
   191   0   1   0.0      2.1603899999999996      115.99906256907552                       0
   192   0   1   0.0      3.6006499999999995      115.99906256907552                       0
   193   0   1   0.0                       0      119.74096781323924                       0
   194   0   1   0.0      1.4402599999999999      119.74096781323924                       0
   195   0   1   0.0      2.1603899999999996      118.49366606518467                       0
   196   0   1   0.0      3.6006499999999995      118.49366606518467                       0
   197   0   1   0.0                       0       122.2355713093484                       0
   198   0   1   0.0      1.4402599999999999       122.2355713093484                       0
   199   0   1   0.0      2.1603899999999996      120.98826956129383                       0
   200   0   1   0.0      3.6006499999999995      120.98826956129383                       0
   201   0   1   0.0                       0      124.73017480545755                       0
   202   0   1   0.0      1.4402599999999999      124.73017480545755                       0
   203   0   1   0.0      2.1603899999999996      123.48287305740298                       0
   204   0   1   0.0      3.6006499999999995      123.48287305740298                       0
   205   0   1   0.0                       0      127.22477830156672                       0
   206   0   1   0.0      1.4402599999999999      127.22477830156672                       0
   207   0   1   0.0      2.1603899999999996      125.97747655351215                       0
   208   0   1   0.0      3.6006499999999995      125.97747655351215                       0
   209   0   1   0.0                       0      129.71938179767588                       0
   210   0   1   0.0      1.4402599999999999      129.71938179767588                       0
   211   0   1   0.0      2.1603899999999996      128.47208004962127                       0
   212   0   1   0.0      3.6006499999999995      128.47208004962127                       0
   213   0   1   0.0                       0      132.21398529378502                       0
   214   0   1   0.0      1.4402599999999999      132.21398529378502                       0
   215   0   1   0.0      2.1603899999999996      130.96668354573043                       0
   216   0   1   0.0      3.6006499999999995      130.96668354573043                       0
   217   0   1   0.0                       0      134.70858878989415                       0
   218   0   1   0.0      1.4402599999999999      134.70858878989415                       0
   219   0   1   0.0      2.1603899999999996      133.46128704183957                       0
   220   0   1   0.0      3.6006499999999995      133.46128704183957                       0
   221   0   1   0.0                       0      137.20319228600331                       0
   222   0   1   0.0      1.4402599999999999      137.20319228600331                       0
   223   0   1   0.0      2.1603899999999996      135.95589053794876                       0
   224   0   1   0.0      3.6006499999999995      135.95589053794876                       0
   225   0   1   0.0                       0      139.69779578211245                       0
   226   0   1   0.0      1.4402599999999999      139.69779578211245                       0
   227   0   1   0.0      2.1603899999999996       138.4504940340579                       0
   228   0   1   0.0      3.6006499999999995       138.4504940340579                       0
   229   0   1   0.0                       0      142.19239927822161                       0
   230   0   1   0.0      1.4402599999999999      142.19239927822161                       0
   231   0   1   0.0      2.1603899999999996      140.94509753016703                       0
   232   0   1   0.0      3.6006499999999995      140.94509753016703                       0
   233   0   1   0.0                       0      144.68700277433078                       0
   234   0   1   0.0      1.4402599999999999      144.68700277433078                       0
   235   0   1   0.0      2.1603899999999996       143.4397010262762                       0
   236   0   1   0.0      3.6006499999999995       143.4397010262762                       0
   237   0   1   0.0                       0      147.18160627043991                       0
   238   0   1   0.0      1.4402599999999999      147.18160627043991                       0
   239   0   1   0.0      2.1603899999999996      145.93430452238533                       0
   240   0   1   0.0      3.6006499999999995      145.93430452238533                       0
   241   0   1   0.0      4.3207799999999992                       0                       0
   242   0   1   0.0      5.7610399999999995                       0                       0
   243   0   1   0.0      6.4811699999999997     -1.2473017480545714                       0
   244   0   1   0.0                 7.92143     -1.2473017480545714                       0
   245   0   1   0.0      4.3207799999999992      2.4946034961091508                       0
   246   0   1   0.0      5.7610399999999995      2.4946034961091508                       0
   247   0   1   0.0      6.4811699999999997      1.2473017480545754                       0
   248   0   1   0.0                 7.92143      1.2473017480545754                       0
   249   0   1   0.0      4.3207799999999992      4.9892069922183016                       0
   250   0   1   0.0      5.7610399999999995      4.9892069922183016                       0
   251   0   1   0.0      6.4811699999999997      3.7419052441637262                       0
   252   0   1   0.0                 7.92143      3.7419052441637262                       0
   253   0   1   0.0      4.3207799999999992      7.4838104883274523                       0
   254   0   1   0.0      5.7610399999999995      7.4838104883274523                       0
   255   0   1   0.0      6.4811699999999997      6.2365087402728774                       0
   256   0   1   0.0                 7.92143      6.2365087402728774                       0
   257   0   1   0.0      4.3207799999999992      9.9784139844366031                       0
   258   0   1   0.0      5.7610399999999995      9.9784139844366031                       0
   259   0   1   0.0      6.4811699999999997      8.7311122363820282                       0
   260   0   1   0.0                 7.92143      8.7311122363820282                       0
   261   0   1   0.0      4.3207799999999992      12.473017480545757                       0
   262   0   1   0.0      5.7610399999999995      12.473017480545757                       0
   263   0   1   0.0      6.4811699999999997       11.22571573249118                       0
   264   0   1   0.0                 7.92143       11.22571573249118                       0
   265   0   1   0.0      4.3207799999999992      14.967620976654905                       0
   266   0   1   0.0      5.7610399999999995      14.967620976654905                       0
   267   0   1   0.0      6.4811699999999997       13.72031922860033                       0
   268   0   1   0.0                 7.92143       13.72031922860033                       0
   269   0   1   0.0      4.3207799999999992      17.462224472764056                       0
   270   0   1   0.0      5.7610399999999995      17.462224472764056                       0
   271   0   1   0.0      6.4811699999999997      16.214922724709485                       0
   272   0   1   0.0                 7.92143      16.214922724709485                       0
   273   0   1   0.0      4.3207799999999992      19.956827968873206                       0
   274   0   1   0.0      5.7610399999999995      19.956827968873206                       0
   275   0   1   0.0      6.4811699999999997      18.709526220818635                       0
   276   0   1   0.0                 7.92143      18.709526220818635                       0
   277   0   1   0.0      4.3207799999999992       22.45143146498236                       0
   278   0   1   0.0      5.7610399999999995       22.45143146498236                       0
   279   0   1   0.0      6.4811699999999997      21.204129716927788                       0
   280   0   1   0.0                 7.92143      21.204129716927788                       0
   281   0   1   0.0      4.3207799999999992      24.946034961091513                       0
   282   0   1   0.0      5.7610399999999995      24.946034961091513                       0
   283   0   1   0.0      6.4811699999999997      23.698733213036938                       0
   284   0   1   0.0                 7.92143      23.698733213036938                       0
   285   0   1   0.0      4.3207799999999992      27.440638457200663                       0
   286   0   1   0.0      5.7610399999999995      27.440638457200663                       0
   287   0   1   0.0      6.4811699999999997      26.193336709146084                       0
   288   0   1   0.0                 7.92143      26.193336709146084                       0
   289   0   1   0.0      4.3207799999999992      29.935241953309809                       0
   290   0   1   0.0      5.7610399999999995      29.935241953309809                       0
   291   0   1   0.0      6.4811699999999997      28.687940205255238                       0
   292   0   1   0.0                 7.92143      28.687940205255238                       0
   293   0   1   0.0      4.3207799999999992       32.42984544941897                       0
   294   0   1   0.0      5.7610399999999995       32.42984544941897                       0
   295   0   1   0.0      6.4811699999999997      31.182543701364391                       0
   296   0   1   0.0                 7.92143      31.182543701364391                       0
   297   0   1   0.0      4.3207799999999992      34.924448945528113                       0
   298   0   1   0.0      5.7610399999999995      34.924448945528113                       0
   299   0   1   0.0      6.4811699999999997      33.677147197473538                       0
   300   0   1   0.0                 7.92143      33.677147197473538                       0
   301   0   1   0.0      4.3207799999999992       37.41905244163727                       0
   302   0   1   0.0      5.7610399999999995       37.41905244163727                       0
   303   0   1   0.0      6.4811699999999997      36.171750693582695                       0
   304   0   1   0.0                 7.92143      36.171750693582695                       0
   305   0   1   0.0      4.3207799999999992      39.913655937746412                       0
   306   0   1   0.0      5.7610399999999995      39.913655937746412                       0
   307   0   1   0.0      6.4811699999999997      38.666354189691837                       0
   308   0   1   0.0                 7.92143      38.666354189691837                       0
   309   0   1   0.0      4.3207799999999992      42.408259433855569                       0
   310   0   1   0.0      5.7610399999999995      42.408259433855569                       0
   311   0   1   0.0      6.4811699999999997       41.16095768580098                       0
   312   0   1   0.0                 7.92143       41.16095768580098                       0
   313   0   1   0.0      4.3207799999999992      44.902862929964719                       0
   314   0   1   0.0      5.7610399999999995      44.902862929964719                       0
   315   0   1   0.0      6.4811699999999997      43.655561181910144                       0
   316   0   1   0.0                 7.92143      43.655561181910144                       0
   317   0   1   0.0      4.3207799999999992      47.397466426073862                       0
   318   0   1   0.0      5.7610399999999995      47.397466426073862                       0
   319   0   1   0.0      6.4811699999999997      46.150164678019294                       0