LAMMPS (4 Feb 2025)
OMP_NUM_THREADS environment is not set. Defaulting to 1 thread. (src/comm.cpp:99)
  using 1 OpenMP thread(s) per MPI task
# LAMMPS script for continuing NVT simulation

atom_modify map yes
newton      on

read_restart nvt_prod.restart.1120000
Reading restart file ...
  restart file = 4 Feb 2025, LAMMPS = 4 Feb 2025
  restoring atom style full from restart
  orthogonal box = (0 0 0) to (154.008 148.2 151.07609)
  16 by 8 by 13 MPI processor grid
  pair style symmetrix/mace stores no restart info
  22680 atoms
Finding 1-2 1-3 1-4 neighbors ...
  special bond factors lj:    0        0        0       
  special bond factors coul:  0        0        0       
     0 = max # of 1-2 neighbors
     0 = max # of 1-3 neighbors
     0 = max # of 1-4 neighbors
     1 = max # of special neighbors
  special bonds CPU = 5.148 seconds
  read_restart CPU = 5.411 seconds

pair_style  symmetrix/mace
pair_coeff  * * ../../../../00-common/models/ch2o-dens-inv_swa-1-6-8.json C H O
Loading MACE model from '../../../../00-common/models/ch2o-dens-inv_swa-1-6-8.json' ... success
  mapping LAMMPS type 1 (C) to MACE type 1
  mapping LAMMPS type 2 (H) to MACE type 0
  mapping LAMMPS type 3 (O) to MACE type 2

group graphene type 1
8640 atoms in group graphene
group H2O type 2 3
14040 atoms in group H2O

thermo 1000

######### NVT production for 80 ps #############

dump DUMP1 all atom 100 nvt_prod_14.lammpstrj
timestep 0.001
fix NVT1 H2O nvt temp 300 300 0.1
Resetting global fix info from restart file:
  fix style: nvt, fix ID: NVT1
run 80000
All restart file global fix info was re-assigned
Neighbor list info ...
  update: every = 1 steps, delay = 0 steps, check = yes
  max neighbors/atom: 2000, page size: 100000
  master list distance cutoff = 8
  ghost atom cutoff = 8
  binsize = 4, bins = 39 38 38
  1 neighbor lists, perpetual/occasional/extra = 1 0 0
  (1) pair symmetrix/mace, perpetual
      attributes: full, newton on
      pair build: full/bin
      stencil: full/bin/3d
      bin: standard
Per MPI rank memory allocation (min/avg/max) = 5.965 | 6.248 | 8.43 Mbytes
   Step          Temp          E_pair         E_mol          TotEng         Press     
   1120000   186.13215     -3538187.6      0             -3537642        27.486194    
   1121000   187.60633     -3538189.6      0             -3537639.6      42.443464    
   1122000   183.89448     -3538194.3      0             -3537655.2      32.955902    
   1123000   186.79866     -3538184.2      0             -3537636.6      63.14895     
   1124000   186.51957     -3538170        0             -3537623.2      66.743724    
   1125000   185.72446     -3538171.4      0             -3537626.9      27.589799    
   1126000   184.13677     -3538180.1      0             -3537640.3      43.599038    
   1127000   186.66416     -3538177.3      0             -3537630.1      41.004963    
   1128000   187.55175     -3538170.4      0             -3537620.6      48.867725    
   1129000   187.23373     -3538180.6      0             -3537631.8      38.534111    
   1130000   184.65244     -3538175.2      0             -3537633.9      76.355654    
   1131000   187.47541     -3538178.9      0             -3537629.3      56.709524    
   1132000   186.32629     -3538177.8      0             -3537631.6      79.545825    
   1133000   184.7752      -3538171.4      0             -3537629.7      66.283295    
   1134000   185.16604     -3538168        0             -3537625.2      59.413344    
   1135000   184.91201     -3538171.4      0             -3537629.3      65.30056     
   1136000   186.99124     -3538172        0             -3537623.9      44.272593    
   1137000   186.41158     -3538171.7      0             -3537625.2      83.25641     
   1138000   187.10334     -3538175.9      0             -3537627.4      55.046039    
   1139000   185.61746     -3538172.1      0             -3537628        61.790323    
   1140000   186.33366     -3538177.2      0             -3537631        59.092852    
   1141000   186.03672     -3538169.2      0             -3537623.8      26.750267    
   1142000   184.45119     -3538171.7      0             -3537631        30.066483    
   1143000   185.11342     -3538178.6      0             -3537636        47.84968     
   1144000   184.20073     -3538171.2      0             -3537631.2      36.798613    
   1145000   188.33174     -3538168.8      0             -3537616.7      57.659544    
   1146000   185.16674     -3538167.4      0             -3537624.5      38.174705    
   1147000   186.37454     -3538168.7      0             -3537622.4      79.416764    
   1148000   185.10933     -3538175.9      0             -3537633.3      40.910311    
   1149000   184.88664     -3538167.5      0             -3537625.5      28.475236    
   1150000   184.81885     -3538177.1      0             -3537635.3      62.502048    
   1151000   187.06984     -3538173.2      0             -3537624.9      40.255856    
   1152000   184.9648      -3538174.9      0             -3537632.7      49.45244     
   1153000   186.91337     -3538175.3      0             -3537627.4      43.602463    
   1154000   184.63011     -3538176.9      0             -3537635.7      49.326062    
   1155000   185.48313     -3538164        0             -3537620.2      47.127144    
   1156000   186.01895     -3538168.9      0             -3537623.6      57.554604    
   1157000   185.7677      -3538173.5      0             -3537629        55.339848    
   1158000   184.32633     -3538178.4      0             -3537638        75.147817    
   1159000   185.52635     -3538168.5      0             -3537624.7      48.157162    
   1160000   185.25508     -3538175        0             -3537631.9      28.537996    
   1161000   185.77008     -3538172.7      0             -3537628.2      56.934702    
   1162000   183.2566      -3538176.3      0             -3537639.1      56.80708     
   1163000   186.62083     -3538177.3      0             -3537630.2      55.314353    
   1164000   183.66145     -3538180        0             -3537641.6      62.696424    
   1165000   185.32163     -3538172.6      0             -3537629.3      30.744049    
   1166000   185.35606     -3538172.4      0             -3537629.1      65.028145    
   1167000   184.48549     -3538183.1      0             -3537642.2      39.311927    
   1168000   184.43392     -3538180.6      0             -3537640        63.542392    
   1169000   187.74589     -3538175.9      0             -3537625.5      24.941065    
   1170000   186.98312     -3538178.8      0             -3537630.7      59.8542      
   1171000   188.18556     -3538171.8      0             -3537620.2      52.51876     
   1172000   185.22347     -3538184.4      0             -3537641.5      51.031682    
   1173000   186.47128     -3538181        0             -3537634.4      35.856472    
   1174000   185.71578     -3538175.4      0             -3537631        80.84323     
   1175000   185.80753     -3538177.7      0             -3537633        69.993812    
   1176000   187.14722     -3538169.1      0             -3537620.5      47.939117    
   1177000   186.57668     -3538169.2      0             -3537622.2      47.12746     
   1178000   183.96971     -3538181.4      0             -3537642.1      43.895212    
   1179000   185.1366      -3538166.9      0             -3537624.1      55.457571    
   1180000   186.50116     -3538165.5      0             -3537618.8      37.116984    
   1181000   185.75131     -3538173.2      0             -3537628.6      74.432572    
   1182000   183.65782     -3538171        0             -3537632.6      27.365268    
   1183000   186.77272     -3538166        0             -3537618.5      31.303984    
   1184000   185.57045     -3538169        0             -3537625        62.057374    
   1185000   187.05909     -3538179.1      0             -3537630.7      30.761316    
   1186000   186.57669     -3538182.7      0             -3537635.8      66.928743    
   1187000   187.30598     -3538175.4      0             -3537626.3      58.734385    
   1188000   184.69874     -3538170.8      0             -3537629.4      47.321009    
   1189000   186.90147     -3538171.8      0             -3537623.9      69.234831    
   1190000   185.4796      -3538187        0             -3537643.3      74.147484    
   1191000   186.5386      -3538167.5      0             -3537620.7      42.586817    
   1192000   185.47339     -3538174.9      0             -3537631.1      43.089287    
   1193000   185.48572     -3538173.4      0             -3537629.6      46.352971    
   1194000   185.76472     -3538180.9      0             -3537636.4      48.283941    
   1195000   185.22434     -3538176        0             -3537633        32.540568    
   1196000   184.5227      -3538164.2      0             -3537623.2      54.498513    
   1197000   186.03038     -3538170.7      0             -3537625.4      28.24788     
   1198000   184.90142     -3538163.2      0             -3537621.1      29.091818    
   1199000   185.38376     -3538174.2      0             -3537630.8      90.312128    
   1200000   184.40813     -3538170.2      0             -3537629.6      54.93829     
Loop time of 49215.2 on 1664 procs for 80000 steps with 22680 atoms

Performance: 0.140 ns/day, 170.886 hours/ns, 1.626 timesteps/s, 36.867 katom-step/s
100.0% CPU use with 1664 MPI tasks x 1 OpenMP threads

MPI task timing breakdown:
Section |  min time  |  avg time  |  max time  |%varavg| %total
---------------------------------------------------------------
Pair    | 0.12816    | 6308.8     | 48347      |16644.7 | 12.82
Bond    | 0.0031549  | 0.0071077  | 0.0331     |   8.0 |  0.00
Neigh   | 0.013593   | 0.25214    | 5.2712     | 162.6 |  0.00
Comm    | 0.60921    | 1773.6     | 24027      |10121.2 |  3.60
Output  | 0.66929    | 8.4381     | 17.141     | 175.0 |  0.02
Modify  | 197.41     | 41110      | 49192      |8071.1 | 83.53
Other   |            | 14.03      |            |       |  0.03

Nlocal:        13.6298 ave         227 max           0 min
Histogram: 1441 12 99 44 7 8 6 3 13 31
Nghost:        137.395 ave        2064 max           0 min
Histogram: 1332 159 40 31 40 16 11 9 11 15
Neighs:              0 ave           0 max           0 min
Histogram: 1664 0 0 0 0 0 0 0 0 0
FullNghs:      2088.95 ave       48128 max           0 min
Histogram: 1449 108 38 13 5 5 3 8 16 19

Total # of neighbors = 3476018
Ave neighs/atom = 153.26358
Ave special neighs/atom = 0
Neighbor list builds = 4251
Dangerous builds = 0

write_restart nvt_prod.restart.*
System init for write_restart ...
write_data nvt_prod_final.lammps-data
System init for write_data ...

Total wall time: 13:40:54
