LAMMPS data file via write_data, version 4 Feb 2025, timestep = 1200000, units = metal

22680 atoms
3 atom types

0 154.00799999999998 xlo xhi
0 148.2 ylo yhi
0 151.07609208607428 zlo zhi

Masses

1 12.01099999691024
2 1.007999999740698
3 15.99899999588435

Atoms # full

2 0 1 0 0.218 0.329 9.086 0 0 0
4 0 1 0 0.249 2.787 9.284 0 0 0
11 0 1 0 1.6 0.303 8.988 0 0 0
12 0 1 0 2.316 1.5769999999999997 9.016 0 0 0
13 0 1 0 1.6430000000000002 2.809 9.204 0 0 0
14 0 1 0 2.342 4.032 9.194 0 0 0
22 0 1 0 4.482 0.374 9.086 0 0 0
23 0 1 0 3.769 1.637 9.054 0 0 0
24 0 1 0 4.465 2.802 9.243 0 0 0
25 0 1 0 3.77 4.05 9.154 0 0 0
31 0 1 0 5.896 0.342 9.22 0 0 0
32 0 1 0 6.609 1.5929999999999997 9.335 0 0 0
33 0 1 0 5.917000000000001 2.801 9.26 0 0 0
34 0 1 0 6.6 4.022 9.349 0 0 0
42 0 1 0 8.765 0.29 9.34 0 0 0
43 0 1 0 8.056 1.531 9.361 0 0 0
44 0 1 0 8.772 2.7799999999999994 9.229 0 0 0
45 0 1 0 8.043 4.043 9.279 0 0 0
6 0 1 0 0.22 5.287 9.181 0 0 0
8 0 1 0 0.179 7.765999999999999 9.149 0 0 0
15 0 1 0 1.634 5.322 9.189 0 0 0
16 0 1 0 2.398 6.508 8.972 0 0 0
17 0 1 0 1.605 7.755 9.069 0 0 0
18 0 1 0 2.32 9.02 8.889 0 0 0
26 0 1 0 4.501 5.260999999999999 9.132 0 0 0
27 0 1 0 3.838 6.524 9.005 0 0 0
28 0 1 0 4.466 7.7509999999999994 8.889 0 0 0
29 0 1 0 3.747 9.001 8.922 0 0 0
35 0 1 0 5.875 5.225 9.238 0 0 0
36 0 1 0 6.577 6.48 9.094 0 0 0
37 0 1 0 5.881000000000001 7.699 8.982 0 0 0
38 0 1 0 6.595 8.951 9.137 0 0 0
46 0 1 0 8.741 5.264 9.253 0 0 0
47 0 1 0 8.016 6.512999999999999 9.252 0 0 0
48 0 1 0 8.72 7.752 9.265 0 0 0
49 0 1 0 7.991 8.947 9.23 0 0 0
10 0 1 0 0.197 10.198 8.92 0 0 0
19 0 1 0 1.605 10.252 8.971 0 0 0
20 0 1 0 2.321 11.467 8.956 0 0 0
21 0 1 0 3.7680000000000002 11.468 9.146 0 0 0
30 0 1 0 4.463 10.205 9.213 0 0 0
62 0 1 0 0.218 12.678999999999998 9.086 0 0 0
71 0 1 0 1.6 12.652999999999999 8.988 0 0 0
82 0 1 0 4.482 12.723999999999997 9.086 0 0 0
39 0 1 0 5.8870000000000005 10.208 9.197 0 0 0
40 0 1 0 6.557000000000001 11.431 9.242 0 0 0
41 0 1 0 7.993000000000001 11.472 9.299 0 0 0
50 0 1 0 8.693 10.207 9.316 0 0 0
91 0 1 0 5.896 12.691999999999998 9.22 0 0 0
102 0 1 0 8.765 12.639999999999997 9.34 0 0 0
103 0 1 0 8.056 13.880999999999998 9.361 0 0 0
64 0 1 0 0.249 15.136999999999997 9.284 0 0 0
66 0 1 0 0.22 17.636999999999997 9.181 0 0 0
72 0 1 0 2.316 13.926999999999998 9.016 0 0 0
73 0 1 0 1.6430000000000002 15.158999999999999 9.204 0 0 0
74 0 1 0 2.342 16.381999999999998 9.194 0 0 0
75 0 1 0 1.634 17.671999999999997 9.189 0 0 0
83 0 1 0 3.769 13.986999999999998 9.054 0 0 0
84 0 1 0 4.465 15.151999999999996 9.243 0 0 0
85 0 1 0 3.77 16.4 9.154 0 0 0
86 0 1 0 4.501 17.610999999999997 9.132 0 0 0
92 0 1 0 6.609 13.942999999999998 9.335 0 0 0
93 0 1 0 5.917000000000001 15.150999999999998 9.26 0 0 0
94 0 1 0 6.6 16.372 9.349 0 0 0
95 0 1 0 5.875 17.574999999999996 9.238 0 0 0
104 0 1 0 8.772 15.129999999999997 9.229 0 0 0
105 0 1 0 8.043 16.392999999999997 9.279 0 0 0
106 0 1 0 8.741 17.613999999999997 9.253 0 0 0
68 0 1 0 0.179 20.116 9.149 0 0 0
70 0 1 0 0.197 22.548 8.92 0 0 0
76 0 1 0 2.398 18.857999999999997 8.972 0 0 0
77 0 1 0 1.605 20.104999999999997 9.069 0 0 0
78 0 1 0 2.32 21.369999999999994 8.889 0 0 0
79 0 1 0 1.605 22.601999999999997 8.971 0 0 0
87 0 1 0 3.838 18.874 9.005 0 0 0
88 0 1 0 4.466 20.101 8.889 0 0 0
89 0 1 0 3.747 21.351 8.922 0 0 0
90 0 1 0 4.463 22.555 9.213 0 0 0
96 0 1 0 6.577 18.83 9.094 0 0 0
97 0 1 0 5.881000000000001 20.049 8.982 0 0 0
98 0 1 0 6.595 21.301 9.137 0 0 0
99 0 1 0 5.8870000000000005 22.558 9.197 0 0 0
107 0 1 0 8.016 18.863 9.252 0 0 0
108 0 1 0 8.72 20.101999999999997 9.265 0 0 0
109 0 1 0 7.991 21.296999999999997 9.23 0 0 0
110 0 1 0 8.693 22.557 9.316 0 0 0
80 0 1 0 2.321 23.817 8.956 0 0 0
81 0 1 0 3.7680000000000002 23.817999999999998 9.146 0 0 0
122 0 1 0 0.218 25.028999999999996 9.086 0 0 0
124 0 1 0 0.249 27.486999999999995 9.284 0 0 0
131 0 1 0 1.6 25.002999999999997 8.988 0 0 0
132 0 1 0 2.316 26.276999999999994 9.016 0 0 0
133 0 1 0 1.6430000000000002 27.508999999999997 9.204 0 0 0
142 0 1 0 4.482 25.073999999999995 9.086 0 0 0
143 0 1 0 3.769 26.336999999999996 9.054 0 0 0
144 0 1 0 4.465 27.501999999999995 9.243 0 0 0
100 0 1 0 6.557000000000001 23.781 9.242 0 0 0
101 0 1 0 7.993000000000001 23.821999999999996 9.299 0 0 0
151 0 1 0 5.896 25.041999999999994 9.22 0 0 0
152 0 1 0 6.609 26.292999999999992 9.335 0 0 0
153 0 1 0 5.917000000000001 27.500999999999998 9.26 0 0 0
162 0 1 0 8.765 24.98999999999999 9.34 0 0 0
163 0 1 0 8.056 26.230999999999995 9.361 0 0 0
164 0 1 0 8.772 27.479999999999997 9.229 0 0 0
126 0 1 0 0.22 29.986999999999995 9.181 0 0 0
134 0 1 0 2.342 28.731999999999996 9.194 0 0 0
135 0 1 0 1.634 30.021999999999995 9.189 0 0 0
136 0 1 0 2.398 31.207999999999995 8.972 0 0 0
145 0 1 0 3.77 28.749999999999996 9.154 0 0 0
146 0 1 0 4.501 29.960999999999995 9.132 0 0 0
147 0 1 0 3.838 31.223999999999997 9.005 0 0 0
154 0 1 0 6.6 28.721999999999994 9.349 0 0 0
155 0 1 0 5.875 29.924999999999997 9.238 0 0 0
156 0 1 0 6.577 31.179999999999996 9.094 0 0 0
157 0 1 0 5.881000000000001 32.398999999999994 8.982 0 0 0
165 0 1 0 8.043 28.742999999999995 9.279 0 0 0
166 0 1 0 8.741 29.963999999999995 9.253 0 0 0
167 0 1 0 8.016 31.212999999999994 9.252 0 0 0
128 0 1 0 0.179 32.465999999999994 9.149 0 0 0
130 0 1 0 0.197 34.897999999999996 8.92 0 0 0
137 0 1 0 1.605 32.455 9.069 0 0 0
138 0 1 0 2.32 33.72 8.889 0 0 0
139 0 1 0 1.605 34.952 8.971 0 0 0
140 0 1 0 2.321 36.166999999999994 8.956 0 0 0
141 0 1 0 3.7680000000000002 36.16799999999999 9.146 0 0 0
148 0 1 0 4.466 32.45099999999999 8.889 0 0 0
149 0 1 0 3.747 33.70099999999999 8.922 0 0 0
150 0 1 0 4.463 34.904999999999994 9.213 0 0 0
158 0 1 0 6.595 33.650999999999996 9.137 0 0 0
159 0 1 0 5.8870000000000005 34.907999999999994 9.197 0 0 0
160 0 1 0 6.557000000000001 36.13099999999999 9.242 0 0 0
161 0 1 0 7.993000000000001 36.172 9.299 0 0 0
168 0 1 0 8.72 32.452 9.265 0 0 0
169 0 1 0 7.991 33.64699999999999 9.23 0 0 0
170 0 1 0 8.693 34.907 9.316 0 0 0
182 0 1 0 0.218 37.379 9.086 0 0 0
184 0 1 0 0.249 39.836999999999996 9.284 0 0 0
191 0 1 0 1.6 37.352999999999994 8.988 0 0 0
192 0 1 0 2.316 38.626999999999995 9.016 0 0 0
193 0 1 0 1.6430000000000002 39.858999999999995 9.204 0 0 0
194 0 1 0 2.342 41.081999999999994 9.194 0 0 0
202 0 1 0 4.482 37.424 9.086 0 0 0
203 0 1 0 3.769 38.687 9.054 0 0 0
204 0 1 0 4.465 39.852 9.243 0 0 0
205 0 1 0 3.77 41.09999999999999 9.154 0 0 0
211 0 1 0 5.896 37.391999999999996 9.22 0 0 0
212 0 1 0 6.609 38.643 9.335 0 0 0
213 0 1 0 5.917000000000001 39.851 9.26 0 0 0
214 0 1 0 6.6 41.07199999999999 9.349 0 0 0
222 0 1 0 8.765 37.339999999999996 9.34 0 0 0
223 0 1 0 8.056 38.580999999999996 9.361 0 0 0
224 0 1 0 8.772 39.82999999999999 9.229 0 0 0
225 0 1 0 8.043 41.092999999999996 9.279 0 0 0
186 0 1 0 0.22 42.336999999999996 9.181 0 0 0
188 0 1 0 0.179 44.815999999999995 9.149 0 0 0
195 0 1 0 1.634 42.37199999999999 9.189 0 0 0
196 0 1 0 2.398 43.558 8.972 0 0 0
197 0 1 0 1.605 44.805 9.069 0 0 0
198 0 1 0 2.32 46.06999999999999 8.889 0 0 0
206 0 1 0 4.501 42.31099999999999 9.132 0 0 0
207 0 1 0 3.838 43.574 9.005 0 0 0
208 0 1 0 4.466 44.800999999999995 8.889 0 0 0
209 0 1 0 3.747 46.05099999999999 8.922 0 0 0
215 0 1 0 5.875 42.27499999999999 9.238 0 0 0
216 0 1 0 6.577 43.53 9.094 0 0 0
217 0 1 0 5.881000000000001 44.748999999999995 8.982 0 0 0
218 0 1 0 6.595 46.001 9.137 0 0 0
226 0 1 0 8.741 42.31399999999999 9.253 0 0 0
227 0 1 0 8.016 43.562999999999995 9.252 0 0 0
228 0 1 0 8.72 44.802 9.265 0 0 0
229 0 1 0 7.991 45.997 9.23 0 0 0
190 0 1 0 0.197 47.24799999999999 8.92 0 0 0
199 0 1 0 1.605 47.302 8.971 0 0 0
200 0 1 0 2.321 48.516999999999996 8.956 0 0 0
201 0 1 0 3.7680000000000002 48.518 9.146 0 0 0
210 0 1 0 4.463 47.254999999999995 9.213 0 0 0
242 0 1 0 0.218 49.728999999999985 9.086 0 0 0
251 0 1 0 1.6 49.70299999999999 8.988 0 0 0
262 0 1 0 4.482 49.773999999999994 9.086 0 0 0
219 0 1 0 5.8870000000000005 47.257999999999996 9.197 0 0 0
220 0 1 0 6.557000000000001 48.480999999999995 9.242 0 0 0
221 0 1 0 7.993000000000001 48.522 9.299 0 0 0
230 0 1 0 8.693 47.257 9.316 0 0 0
271 0 1 0 5.896 49.74199999999999 9.22 0 0 0
282 0 1 0 8.765 49.68999999999998 9.34 0 0 0
283 0 1 0 8.056 50.93099999999999 9.361 0 0 0
244 0 1 0 0.249 52.18699999999999 9.284 0 0 0
246 0 1 0 0.22 54.68699999999999 9.181 0 0 0
252 0 1 0 2.316 50.97699999999998 9.016 0 0 0
253 0 1 0 1.6430000000000002 52.20899999999999 9.204 0 0 0
254 0 1 0 2.342 53.43199999999999 9.194 0 0 0
255 0 1 0 1.634 54.721999999999994 9.189 0 0 0
263 0 1 0 3.769 51.03699999999999 9.054 0 0 0
264 0 1 0 4.465 52.201999999999984 9.243 0 0 0
265 0 1 0 3.77 53.44999999999999 9.154 0 0 0
266 0 1 0 4.501 54.660999999999994 9.132 0 0 0
272 0 1 0 6.609 50.99299999999999 9.335 0 0 0
273 0 1 0 5.917000000000001 52.20099999999999 9.26 0 0 0
274 0 1 0 6.6 53.42199999999999 9.349 0 0 0
275 0 1 0 5.875 54.62499999999999 9.238 0 0 0
284 0 1 0 8.772 52.17999999999999 9.229 0 0 0
285 0 1 0 8.043 53.44299999999999 9.279 0 0 0
286 0 1 0 8.741 54.663999999999994 9.253 0 0 0
248 0 1 0 0.179 57.16599999999999 9.149 0 0 0
250 0 1 0 0.197 59.59799999999999 8.92 0 0 0
256 0 1 0 2.398 55.90799999999999 8.972 0 0 0
257 0 1 0 1.605 57.15499999999999 9.069 0 0 0
258 0 1 0 2.32 58.41999999999999 8.889 0 0 0
259 0 1 0 1.605 59.651999999999994 8.971 0 0 0
267 0 1 0 3.838 55.92399999999999 9.005 0 0 0
268 0 1 0 4.466 57.15099999999999 8.889 0 0 0
269 0 1 0 3.747 58.40099999999999 8.922 0 0 0
270 0 1 0 4.463 59.60499999999999 9.213 0 0 0
276 0 1 0 6.577 55.87999999999999 9.094 0 0 0
277 0 1 0 5.881000000000001 57.09899999999999 8.982 0 0 0
278 0 1 0 6.595 58.35099999999999 9.137 0 0 0
279 0 1 0 5.8870000000000005 59.60799999999999 9.197 0 0 0
287 0 1 0 8.016 55.91299999999999 9.252 0 0 0
288 0 1 0 8.72 57.151999999999994 9.265 0 0 0
289 0 1 0 7.991 58.34699999999999 9.23 0 0 0
290 0 1 0 8.693 59.60699999999999 9.316 0 0 0
260 0 1 0 2.321 60.86699999999998 8.956 0 0 0
261 0 1 0 3.7680000000000002 60.867999999999995 9.146 0 0 0
302 0 1 0 0.218 62.07899999999999 9.086 0 0 0
304 0 1 0 0.249 64.53699999999999 9.284 0 0 0
311 0 1 0 1.6 62.05299999999998 8.988 0 0 0
312 0 1 0 2.316 63.32699999999999 9.016 0 0 0
313 0 1 0 1.6430000000000002 64.559 9.204 0 0 0
322 0 1 0 4.482 62.123999999999995 9.086 0 0 0
323 0 1 0 3.769 63.386999999999986 9.054 0 0 0
324 0 1 0 4.465 64.55199999999999 9.243 0 0 0
280 0 1 0 6.557000000000001 60.83099999999998 9.242 0 0 0
281 0 1 0 7.993000000000001 60.87199999999999 9.299 0 0 0
331 0 1 0 5.896 62.091999999999985 9.22 0 0 0
332 0 1 0 6.609 63.34299999999999 9.335 0 0 0
333 0 1 0 5.917000000000001 64.55099999999999 9.26 0 0 0
342 0 1 0 8.765 62.03999999999999 9.34 0 0 0
343 0 1 0 8.056 63.280999999999985 9.361 0 0 0
344 0 1 0 8.772 64.52999999999999 9.229 0 0 0
306 0 1 0 0.22 67.03699999999999 9.181 0 0 0
314 0 1 0 2.342 65.782 9.194 0 0 0
315 0 1 0 1.634 67.07199999999999 9.189 0 0 0
316 0 1 0 2.398 68.258 8.972 0 0 0
325 0 1 0 3.77 65.8 9.154 0 0 0
326 0 1 0 4.501 67.011 9.132 0 0 0
327 0 1 0 3.838 68.27399999999999 9.005 0 0 0
334 0 1 0 6.6 65.77199999999999 9.349 0 0 0
335 0 1 0 5.875 66.975 9.238 0 0 0
336 0 1 0 6.577 68.22999999999999 9.094 0 0 0
337 0 1 0 5.881000000000001 69.449 8.982 0 0 0
345 0 1 0 8.043 65.79299999999999 9.279 0 0 0
346 0 1 0 8.741 67.014 9.253 0 0 0
347 0 1 0 8.016 68.26299999999999 9.252 0 0 0
308 0 1 0 0.179 69.51599999999999 9.149 0 0 0
310 0 1 0 0.197 71.948 8.92 0 0 0
317 0 1 0 1.605 69.505 9.069 0 0 0
318 0 1 0 2.32 70.77 8.889 0 0 0
319 0 1 0 1.605 72.002 8.971 0 0 0
320 0 1 0 2.321 73.217 8.956 0 0 0
321 0 1 0 3.7680000000000002 73.21799999999999 9.146 0 0 0
328 0 1 0 4.466 69.50099999999999 8.889 0 0 0
329 0 1 0 3.747 70.75099999999999 8.922 0 0 0
330 0 1 0 4.463 71.955 9.213 0 0 0
348 0 1 0 8.72 69.502 9.265 0 0 0
350 0 1 0 8.693 71.957 9.316 0 0 0
349 0 1 0 7.991 70.69699999999999 9.23 0 0 0
338 0 1 0 6.595 70.701 9.137 0 0 0
339 0 1 0 5.8870000000000005 71.958 9.197 0 0 0
340 0 1 0 6.557000000000001 73.181 9.242 0 0 0
341 0 1 0 7.993000000000001 73.222 9.299 0 0 0
362 0 1 0 0.218 74.42899999999999 9.086 0 0 0
364 0 1 0 0.249 76.88699999999999 9.284 0 0 0
371 0 1 0 1.6 74.40299999999999 8.988 0 0 0
372 0 1 0 2.316 75.67699999999999 9.016 0 0 0
373 0 1 0 1.6430000000000002 76.90899999999999 9.204 0 0 0
374 0 1 0 2.342 78.13199999999999 9.194 0 0 0
382 0 1 0 4.482 74.47399999999999 9.086 0 0 0
383 0 1 0 3.769 75.737 9.054 0 0 0
384 0 1 0 4.465 76.902 9.243 0 0 0
385 0 1 0 3.77 78.14999999999999 9.154 0 0 0
391 0 1 0 5.896 74.44199999999998 9.22 0 0 0
392 0 1 0 6.609 75.693 9.335 0 0 0
393 0 1 0 5.917000000000001 76.901 9.26 0 0 0
394 0 1 0 6.6 78.122 9.349 0 0 0
402 0 1 0 8.765 74.39 9.34 0 0 0
403 0 1 0 8.056 75.631 9.361 0 0 0
404 0 1 0 8.772 76.88 9.229 0 0 0
405 0 1 0 8.043 78.143 9.279 0 0 0
366 0 1 0 0.22 79.38699999999999 9.181 0 0 0
368 0 1 0 0.179 81.866 9.149 0 0 0
375 0 1 0 1.634 79.422 9.189 0 0 0
376 0 1 0 2.398 80.60799999999999 8.972 0 0 0
377 0 1 0 1.605 81.85499999999998 9.069 0 0 0
378 0 1 0 2.32 83.11999999999999 8.889 0 0 0
386 0 1 0 4.501 79.36099999999999 9.132 0 0 0
387 0 1 0 3.838 80.62399999999998 9.005 0 0 0
388 0 1 0 4.466 81.851 8.889 0 0 0
389 0 1 0 3.747 83.101 8.922 0 0 0
395 0 1 0 5.875 79.32499999999999 9.238 0 0 0
396 0 1 0 6.577 80.58 9.094 0 0 0
397 0 1 0 5.881000000000001 81.79899999999998 8.982 0 0 0
398 0 1 0 6.595 83.05099999999999 9.137 0 0 0
406 0 1 0 8.741 79.36399999999999 9.253 0 0 0
407 0 1 0 8.016 80.613 9.252 0 0 0
408 0 1 0 8.72 81.85199999999999 9.265 0 0 0
409 0 1 0 7.991 83.047 9.23 0 0 0
370 0 1 0 0.197 84.298 8.92 0 0 0
379 0 1 0 1.605 84.35199999999999 8.971 0 0 0
380 0 1 0 2.321 85.567 8.956 0 0 0
381 0 1 0 3.7680000000000002 85.568 9.146 0 0 0
390 0 1 0 4.463 84.30499999999998 9.213 0 0 0
422 0 1 0 0.218 86.77899999999998 9.086 0 0 0
431 0 1 0 1.6 86.75299999999999 8.988 0 0 0
442 0 1 0 4.482 86.82399999999998 9.086 0 0 0
399 0 1 0 5.8870000000000005 84.30799999999999 9.197 0 0 0
400 0 1 0 6.557000000000001 85.53099999999999 9.242 0 0 0
401 0 1 0 7.993000000000001 85.57199999999999 9.299 0 0 0
410 0 1 0 8.693 84.30699999999999 9.316 0 0 0
451 0 1 0 5.896 86.79199999999999 9.22 0 0 0
462 0 1 0 8.765 86.74 9.34 0 0 0
463 0 1 0 8.056 87.981 9.361 0 0 0
424 0 1 0 0.249 89.237 9.284 0 0 0
426 0 1 0 0.22 91.737 9.181 0 0 0
432 0 1 0 2.316 88.02699999999999 9.016 0 0 0
433 0 1 0 1.6430000000000002 89.25899999999999 9.204 0 0 0
434 0 1 0 2.342 90.48199999999999 9.194 0 0 0
435 0 1 0 1.634 91.77199999999999 9.189 0 0 0
443 0 1 0 3.769 88.08699999999999 9.054 0 0 0
444 0 1 0 4.465 89.252 9.243 0 0 0
445 0 1 0 3.77 90.49999999999999 9.154 0 0 0
446 0 1 0 4.501 91.71099999999998 9.132 0 0 0
452 0 1 0 6.609 88.04299999999999 9.335 0 0 0
453 0 1 0 5.917000000000001 89.25099999999999 9.26 0 0 0
454 0 1 0 6.6 90.472 9.349 0 0 0
455 0 1 0 5.875 91.67499999999998 9.238 0 0 0
464 0 1 0 8.772 89.22999999999999 9.229 0 0 0
465 0 1 0 8.043 90.493 9.279 0 0 0
466 0 1 0 8.741 91.71399999999998 9.253 0 0 0
428 0 1 0 0.179 94.216 9.149 0 0 0
430 0 1 0 0.197 96.648 8.92 0 0 0
436 0 1 0 2.398 92.95799999999998 8.972 0 0 0
437 0 1 0 1.605 94.20499999999998 9.069 0 0 0
438 0 1 0 2.32 95.46999999999998 8.889 0 0 0
439 0 1 0 1.605 96.70199999999997 8.971 0 0 0
447 0 1 0 3.838 92.97399999999999 9.005 0 0 0
448 0 1 0 4.466 94.20099999999998 8.889 0 0 0
449 0 1 0 3.747 95.451 8.922 0 0 0
450 0 1 0 4.463 96.65499999999999 9.213 0 0 0
456 0 1 0 6.577 92.92999999999999 9.094 0 0 0
457 0 1 0 5.881000000000001 94.14899999999999 8.982 0 0 0
458 0 1 0 6.595 95.40099999999998 9.137 0 0 0
459 0 1 0 5.8870000000000005 96.65799999999999 9.197 0 0 0
467 0 1 0 8.016 92.963 9.252 0 0 0
468 0 1 0 8.72 94.20199999999998 9.265 0 0 0
469 0 1 0 7.991 95.39699999999999 9.23 0 0 0
470 0 1 0 8.693 96.65699999999997 9.316 0 0 0
440 0 1 0 2.321 97.91699999999999 8.956 0 0 0
441 0 1 0 3.7680000000000002 97.91799999999999 9.146 0 0 0
482 0 1 0 0.218 99.12899999999998 9.086 0 0 0
484 0 1 0 0.249 101.58699999999999 9.284 0 0 0
491 0 1 0 1.6 99.10299999999998 8.988 0 0 0
492 0 1 0 2.316 100.37699999999997 9.016 0 0 0
493 0 1 0 1.6430000000000002 101.60899999999998 9.204 0 0 0
502 0 1 0 4.482 99.17399999999998 9.086 0 0 0
503 0 1 0 3.769 100.43699999999998 9.054 0 0 0
504 0 1 0 4.465 101.60199999999998 9.243 0 0 0
460 0 1 0 6.557000000000001 97.88099999999999 9.242 0 0 0
461 0 1 0 7.993000000000001 97.92199999999998 9.299 0 0 0
511 0 1 0 5.896 99.14199999999998 9.22 0 0 0
512 0 1 0 6.609 100.39299999999999 9.335 0 0 0
513 0 1 0 5.917000000000001 101.60099999999998 9.26 0 0 0
522 0 1 0 8.765 99.08999999999997 9.34 0 0 0
523 0 1 0 8.056 100.33099999999999 9.361 0 0 0
524 0 1 0 8.772 101.57999999999997 9.229 0 0 0
486 0 1 0 0.22 104.08699999999999 9.181 0 0 0
494 0 1 0 2.342 102.83199999999998 9.194 0 0 0
495 0 1 0 1.634 104.12199999999999 9.189 0 0 0
496 0 1 0 2.398 105.30799999999998 8.972 0 0 0
505 0 1 0 3.77 102.84999999999997 9.154 0 0 0
506 0 1 0 4.501 104.06099999999998 9.132 0 0 0
507 0 1 0 3.838 105.32399999999998 9.005 0 0 0
514 0 1 0 6.6 102.82199999999997 9.349 0 0 0
515 0 1 0 5.875 104.02499999999996 9.238 0 0 0
516 0 1 0 6.577 105.27999999999999 9.094 0 0 0
517 0 1 0 5.881000000000001 106.49899999999998 8.982 0 0 0
525 0 1 0 8.043 102.84299999999999 9.279 0 0 0
526 0 1 0 8.741 104.06399999999996 9.253 0 0 0
527 0 1 0 8.016 105.31299999999999 9.252 0 0 0
488 0 1 0 0.179 106.56599999999999 9.149 0 0 0
490 0 1 0 0.197 108.99799999999998 8.92 0 0 0
497 0 1 0 1.605 106.55499999999998 9.069 0 0 0
498 0 1 0 2.32 107.81999999999998 8.889 0 0 0
499 0 1 0 1.605 109.05199999999998 8.971 0 0 0
500 0 1 0 2.321 110.26699999999997 8.956 0 0 0
501 0 1 0 3.7680000000000002 110.26799999999999 9.146 0 0 0
508 0 1 0 4.466 106.55099999999999 8.889 0 0 0
509 0 1 0 3.747 107.80099999999999 8.922 0 0 0
510 0 1 0 4.463 109.00499999999998 9.213 0 0 0
530 0 1 0 8.693 109.00699999999998 9.316 0 0 0
529 0 1 0 7.991 107.74699999999999 9.23 0 0 0
518 0 1 0 6.595 107.75099999999996 9.137 0 0 0
519 0 1 0 5.8870000000000005 109.00799999999998 9.197 0 0 0
520 0 1 0 6.557000000000001 110.23099999999998 9.242 0 0 0
521 0 1 0 7.993000000000001 110.27199999999998 9.299 0 0 0
528 0 1 0 8.72 106.55199999999998 9.265 0 0 0
542 0 1 0 0.218 111.47899999999998 9.086 0 0 0
544 0 1 0 0.249 113.93699999999998 9.284 0 0 0
551 0 1 0 1.6 111.45299999999997 8.988 0 0 0
552 0 1 0 2.316 112.72699999999999 9.016 0 0 0
553 0 1 0 1.6430000000000002 113.95899999999997 9.204 0 0 0
554 0 1 0 2.342 115.18199999999999 9.194 0 0 0
562 0 1 0 4.482 111.52399999999999 9.086 0 0 0
563 0 1 0 3.769 112.78699999999999 9.054 0 0 0
564 0 1 0 4.465 113.952 9.243 0 0 0
565 0 1 0 3.77 115.19999999999999 9.154 0 0 0
571 0 1 0 5.896 111.49199999999998 9.22 0 0 0
572 0 1 0 6.609 112.743 9.335 0 0 0
573 0 1 0 5.917000000000001 113.951 9.26 0 0 0
574 0 1 0 6.6 115.172 9.349 0 0 0
582 0 1 0 8.765 111.44 9.34 0 0 0
583 0 1 0 8.056 112.681 9.361 0 0 0
584 0 1 0 8.772 113.92999999999999 9.229 0 0 0
585 0 1 0 8.043 115.193 9.279 0 0 0
546 0 1 0 0.22 116.43699999999998 9.181 0 0 0
548 0 1 0 0.179 118.916 9.149 0 0 0
555 0 1 0 1.634 116.472 9.189 0 0 0
556 0 1 0 2.398 117.65799999999999 8.972 0 0 0
557 0 1 0 1.605 118.90499999999997 9.069 0 0 0
558 0 1 0 2.32 120.16999999999999 8.889 0 0 0
566 0 1 0 4.501 116.41099999999999 9.132 0 0 0
567 0 1 0 3.838 117.67399999999998 9.005 0 0 0
568 0 1 0 4.466 118.901 8.889 0 0 0
569 0 1 0 3.747 120.15099999999998 8.922 0 0 0
575 0 1 0 5.875 116.37499999999999 9.238 0 0 0
576 0 1 0 6.577 117.63 9.094 0 0 0
577 0 1 0 5.881000000000001 118.84899999999998 8.982 0 0 0
578 0 1 0 6.595 120.10099999999998 9.137 0 0 0
586 0 1 0 8.741 116.41399999999999 9.253 0 0 0
587 0 1 0 8.016 117.663 9.252 0 0 0
588 0 1 0 8.72 118.90199999999999 9.265 0 0 0
589 0 1 0 7.991 120.097 9.23 0 0 0
550 0 1 0 0.197 121.34799999999998 8.92 0 0 0
559 0 1 0 1.605 121.40199999999999 8.971 0 0 0
560 0 1 0 2.321 122.61699999999999 8.956 0 0 0
561 0 1 0 3.7680000000000002 122.61799999999998 9.146 0 0 0
570 0 1 0 4.463 121.35499999999998 9.213 0 0 0
602 0 1 0 0.218 123.82899999999998 9.086 0 0 0
611 0 1 0 1.6 123.80299999999998 8.988 0 0 0
622 0 1 0 4.482 123.87399999999998 9.086 0 0 0
579 0 1 0 5.8870000000000005 121.35799999999999 9.197 0 0 0
580 0 1 0 6.557000000000001 122.58099999999999 9.242 0 0 0
581 0 1 0 7.993000000000001 122.62199999999999 9.299 0 0 0
590 0 1 0 8.693 121.357 9.316 0 0 0
631 0 1 0 5.896 123.84199999999998 9.22 0 0 0
642 0 1 0 8.765 123.78999999999999 9.34 0 0 0
643 0 1 0 8.056 125.03099999999999 9.361 0 0 0
604 0 1 0 0.249 126.28699999999999 9.284 0 0 0
606 0 1 0 0.22 128.78699999999998 9.181 0 0 0
612 0 1 0 2.316 125.07699999999998 9.016 0 0 0
613 0 1 0 1.6430000000000002 126.30899999999998 9.204 0 0 0
614 0 1 0 2.342 127.53199999999998 9.194 0 0 0
615 0 1 0 1.634 128.82199999999997 9.189 0 0 0
623 0 1 0 3.769 125.13699999999999 9.054 0 0 0
624 0 1 0 4.465 126.30199999999999 9.243 0 0 0
625 0 1 0 3.77 127.54999999999998 9.154 0 0 0
626 0 1 0 4.501 128.761 9.132 0 0 0
632 0 1 0 6.609 125.09299999999999 9.335 0 0 0
633 0 1 0 5.917000000000001 126.30099999999999 9.26 0 0 0
634 0 1 0 6.6 127.52199999999999 9.349 0 0 0
635 0 1 0 5.875 128.725 9.238 0 0 0
644 0 1 0 8.772 126.27999999999999 9.229 0 0 0
645 0 1 0 8.043 127.54299999999999 9.279 0 0 0
646 0 1 0 8.741 128.76399999999998 9.253 0 0 0
608 0 1 0 0.179 131.266 9.149 0 0 0
610 0 1 0 0.197 133.69799999999998 8.92 0 0 0
616 0 1 0 2.398 130.00799999999998 8.972 0 0 0
617 0 1 0 1.605 131.255 9.069 0 0 0
618 0 1 0 2.32 132.51999999999998 8.889 0 0 0
619 0 1 0 1.605 133.75199999999998 8.971 0 0 0
627 0 1 0 3.838 130.02399999999997 9.005 0 0 0
628 0 1 0 4.466 131.25099999999998 8.889 0 0 0
629 0 1 0 3.747 132.50099999999998 8.922 0 0 0
630 0 1 0 4.463 133.70499999999998 9.213 0 0 0
636 0 1 0 6.577 129.98 9.094 0 0 0
637 0 1 0 5.881000000000001 131.19899999999998 8.982 0 0 0
638 0 1 0 6.595 132.451 9.137 0 0 0
639 0 1 0 5.8870000000000005 133.708 9.197 0 0 0
647 0 1 0 8.016 130.01299999999998 9.252 0 0 0
648 0 1 0 8.72 131.25199999999998 9.265 0 0 0
649 0 1 0 7.991 132.44699999999997 9.23 0 0 0
650 0 1 0 8.693 133.707 9.316 0 0 0
620 0 1 0 2.321 134.96699999999998 8.956 0 0 0
621 0 1 0 3.7680000000000002 134.968 9.146 0 0 0
662 0 1 0 0.218 136.179 9.086 0 0 0
664 0 1 0 0.249 138.637 9.284 0 0 0
671 0 1 0 1.6 136.153 8.988 0 0 0
672 0 1 0 2.316 137.427 9.016 0 0 0
673 0 1 0 1.6430000000000002 138.659 9.204 0 0 0
682 0 1 0 4.482 136.224 9.086 0 0 0
683 0 1 0 3.769 137.487 9.054 0 0 0
684 0 1 0 4.465 138.652 9.243 0 0 0
640 0 1 0 6.557000000000001 134.93099999999998 9.242 0 0 0
641 0 1 0 7.993000000000001 134.97199999999998 9.299 0 0 0
691 0 1 0 5.896 136.192 9.22 0 0 0
692 0 1 0 6.609 137.44299999999998 9.335 0 0 0
693 0 1 0 5.917000000000001 138.65099999999998 9.26 0 0 0
702 0 1 0 8.765 136.14 9.34 0 0 0
703 0 1 0 8.056 137.381 9.361 0 0 0
704 0 1 0 8.772 138.63 9.229 0 0 0
666 0 1 0 0.22 141.137 9.181 0 0 0
674 0 1 0 2.342 139.882 9.194 0 0 0
675 0 1 0 1.634 141.172 9.189 0 0 0
676 0 1 0 2.398 142.358 8.972 0 0 0
685 0 1 0 3.77 139.9 9.154 0 0 0
686 0 1 0 4.501 141.111 9.132 0 0 0
687 0 1 0 3.838 142.374 9.005 0 0 0
694 0 1 0 6.6 139.87199999999999 9.349 0 0 0
695 0 1 0 5.875 141.075 9.238 0 0 0
696 0 1 0 6.577 142.32999999999998 9.094 0 0 0
697 0 1 0 5.881000000000001 143.549 8.982 0 0 0
705 0 1 0 8.043 139.893 9.279 0 0 0
706 0 1 0 8.741 141.114 9.253 0 0 0
707 0 1 0 8.016 142.363 9.252 0 0 0
668 0 1 0 0.179 143.61599999999999 9.149 0 0 0
670 0 1 0 0.197 146.048 8.92 0 0 0
677 0 1 0 1.605 143.605 9.069 0 0 0
678 0 1 0 2.32 144.87 8.889 0 0 0
679 0 1 0 1.605 146.102 8.971 0 0 0
680 0 1 0 2.321 147.317 8.956 0 0 0
681 0 1 0 3.7680000000000002 147.31799999999998 9.146 0 0 0
688 0 1 0 4.466 143.601 8.889 0 0 0
689 0 1 0 3.747 144.851 8.922 0 0 0
690 0 1 0 4.463 146.055 9.213 0 0 0
698 0 1 0 6.595 144.801 9.137 0 0 0
699 0 1 0 5.8870000000000005 146.058 9.197 0 0 0
700 0 1 0 6.557000000000001 147.281 9.242 0 0 0
701 0 1 0 7.993000000000001 147.322 9.299 0 0 0
708 0 1 0 8.72 143.602 9.265 0 0 0
709 0 1 0 7.991 144.797 9.23 0 0 0
710 0 1 0 8.693 146.057 9.316 0 0 0
3 0 1 0 12.362 1.5789999999999997 9.231 0 0 0
5 0 1 0 12.338 4.051 9.155 0 0 0
51 0 1 0 10.214 0.35 9.373 0 0 0
52 0 1 0 10.919 1.568 9.464 0 0 0
53 0 1 0 10.19 2.7519999999999993 9.294 0 0 0
54 0 1 0 10.888 4.047 9.22 0 0 0
722 0 1 0 13.051999999999998 0.329 9.086 0 0 0
724 0 1 0 13.082999999999998 2.787 9.284 0 0 0
731 0 1 0 14.433999999999997 0.303 8.988 0 0 0
732 0 1 0 15.149999999999999 1.5769999999999997 9.016 0 0 0
733 0 1 0 14.476999999999999 2.809 9.204 0 0 0
734 0 1 0 15.175999999999998 4.032 9.194 0 0 0
742 0 1 0 17.316 0.374 9.086 0 0 0
743 0 1 0 16.602999999999998 1.637 9.054 0 0 0
744 0 1 0 17.299 2.802 9.243 0 0 0
745 0 1 0 16.604 4.05 9.154 0 0 0
751 0 1 0 18.729999999999997 0.342 9.22 0 0 0
753 0 1 0 18.750999999999998 2.801 9.26 0 0 0
7 0 1 0 12.325 6.504 9.184 0 0 0
9 0 1 0 12.299000000000001 9.014 9.137 0 0 0
55 0 1 0 10.137 5.271 9.272 0 0 0
56 0 1 0 10.891000000000002 6.489999999999999 9.165 0 0 0
57 0 1 0 10.165000000000001 7.72 9.258 0 0 0
58 0 1 0 10.843 8.969 9.231 0 0 0
726 0 1 0 13.054 5.287 9.181 0 0 0
728 0 1 0 13.012999999999998 7.765999999999999 9.149 0 0 0
735 0 1 0 14.467999999999998 5.322 9.189 0 0 0
736 0 1 0 15.231999999999998 6.508 8.972 0 0 0
737 0 1 0 14.438999999999998 7.755 9.069 0 0 0
738 0 1 0 15.153999999999998 9.02 8.889 0 0 0
746 0 1 0 17.334999999999997 5.260999999999999 9.132 0 0 0
747 0 1 0 16.671999999999997 6.524 9.005 0 0 0
748 0 1 0 17.299999999999997 7.7509999999999994 8.889 0 0 0
749 0 1 0 16.580999999999996 9.001 8.922 0 0 0
755 0 1 0 18.708999999999996 5.225 9.238 0 0 0
757 0 1 0 18.714999999999996 7.699 8.982 0 0 0
1 0 1 0 12.293 11.448 9.073 0 0 0
59 0 1 0 10.114 10.221999999999998 9.286 0 0 0
60 0 1 0 10.882 11.447 9.333 0 0 0
111 0 1 0 10.214 12.699999999999998 9.373 0 0 0
730 0 1 0 13.030999999999997 10.198 8.92 0 0 0
782 0 1 0 13.051999999999998 12.678999999999998 9.086 0 0 0
791 0 1 0 14.433999999999997 12.652999999999999 8.988 0 0 0
739 0 1 0 14.438999999999998 10.252 8.971 0 0 0
740 0 1 0 15.154999999999998 11.467 8.956 0 0 0
741 0 1 0 16.601999999999997 11.468 9.146 0 0 0
750 0 1 0 17.296999999999997 10.205 9.213 0 0 0
759 0 1 0 18.720999999999997 10.208 9.197 0 0 0
802 0 1 0 17.316 12.723999999999997 9.086 0 0 0
811 0 1 0 18.729999999999997 12.691999999999998 9.22 0 0 0
63 0 1 0 12.362 13.928999999999998 9.231 0 0 0
65 0 1 0 12.338 16.400999999999996 9.155 0 0 0
112 0 1 0 10.919 13.917999999999997 9.464 0 0 0
113 0 1 0 10.19 15.101999999999995 9.294 0 0 0
114 0 1 0 10.888 16.397 9.22 0 0 0
115 0 1 0 10.137 17.621 9.272 0 0 0
784 0 1 0 13.082999999999998 15.136999999999997 9.284 0 0 0
786 0 1 0 13.054 17.636999999999997 9.181 0 0 0
804 0 1 0 17.299 15.151999999999996 9.243 0 0 0
805 0 1 0 16.604 16.4 9.154 0 0 0
806 0 1 0 17.334999999999997 17.610999999999997 9.132 0 0 0
813 0 1 0 18.750999999999998 15.150999999999998 9.26 0 0 0
815 0 1 0 18.708999999999996 17.574999999999996 9.238 0 0 0
792 0 1 0 15.149999999999999 13.926999999999998 9.016 0 0 0
793 0 1 0 14.476999999999999 15.158999999999999 9.204 0 0 0
794 0 1 0 15.175999999999998 16.381999999999998 9.194 0 0 0
795 0 1 0 14.467999999999998 17.671999999999997 9.189 0 0 0
803 0 1 0 16.602999999999998 13.986999999999998 9.054 0 0 0
67 0 1 0 12.325 18.854 9.184 0 0 0
69 0 1 0 12.299000000000001 21.363999999999997 9.137 0 0 0
116 0 1 0 10.891000000000002 18.839999999999996 9.165 0 0 0
117 0 1 0 10.165000000000001 20.069999999999997 9.258 0 0 0
118 0 1 0 10.843 21.318999999999996 9.231 0 0 0
119 0 1 0 10.114 22.571999999999996 9.286 0 0 0
788 0 1 0 13.012999999999998 20.116 9.149 0 0 0
790 0 1 0 13.030999999999997 22.548 8.92 0 0 0
796 0 1 0 15.231999999999998 18.857999999999997 8.972 0 0 0
797 0 1 0 14.438999999999998 20.104999999999997 9.069 0 0 0
798 0 1 0 15.153999999999998 21.369999999999994 8.889 0 0 0
799 0 1 0 14.438999999999998 22.601999999999997 8.971 0 0 0
807 0 1 0 16.671999999999997 18.874 9.005 0 0 0
808 0 1 0 17.299999999999997 20.101 8.889 0 0 0
809 0 1 0 16.580999999999996 21.351 8.922 0 0 0
810 0 1 0 17.296999999999997 22.555 9.213 0 0 0
817 0 1 0 18.714999999999996 20.049 8.982 0 0 0
819 0 1 0 18.720999999999997 22.558 9.197 0 0 0
61 0 1 0 12.293 23.797999999999995 9.073 0 0 0
120 0 1 0 10.882 23.796999999999997 9.333 0 0 0
123 0 1 0 12.362 26.278999999999993 9.231 0 0 0
171 0 1 0 10.214 25.049999999999997 9.373 0 0 0
172 0 1 0 10.919 26.267999999999994 9.464 0 0 0
173 0 1 0 10.19 27.451999999999995 9.294 0 0 0
842 0 1 0 13.051999999999998 25.028999999999996 9.086 0 0 0
844 0 1 0 13.082999999999998 27.486999999999995 9.284 0 0 0
851 0 1 0 14.433999999999997 25.002999999999997 8.988 0 0 0
800 0 1 0 15.154999999999998 23.817 8.956 0 0 0
801 0 1 0 16.601999999999997 23.817999999999998 9.146 0 0 0
852 0 1 0 15.149999999999999 26.276999999999994 9.016 0 0 0
853 0 1 0 14.476999999999999 27.508999999999997 9.204 0 0 0
862 0 1 0 17.316 25.073999999999995 9.086 0 0 0
863 0 1 0 16.602999999999998 26.336999999999996 9.054 0 0 0
864 0 1 0 17.299 27.501999999999995 9.243 0 0 0
871 0 1 0 18.729999999999997 25.041999999999994 9.22 0 0 0
873 0 1 0 18.750999999999998 27.500999999999998 9.26 0 0 0
125 0 1 0 12.338 28.750999999999998 9.155 0 0 0
127 0 1 0 12.325 31.203999999999994 9.184 0 0 0
174 0 1 0 10.888 28.746999999999996 9.22 0 0 0
175 0 1 0 10.137 29.970999999999997 9.272 0 0 0
176 0 1 0 10.891000000000002 31.189999999999998 9.165 0 0 0
846 0 1 0 13.054 29.986999999999995 9.181 0 0 0
854 0 1 0 15.175999999999998 28.731999999999996 9.194 0 0 0
855 0 1 0 14.467999999999998 30.021999999999995 9.189 0 0 0
856 0 1 0 15.231999999999998 31.207999999999995 8.972 0 0 0
865 0 1 0 16.604 28.749999999999996 9.154 0 0 0
866 0 1 0 17.334999999999997 29.960999999999995 9.132 0 0 0
867 0 1 0 16.671999999999997 31.223999999999997 9.005 0 0 0
875 0 1 0 18.708999999999996 29.924999999999997 9.238 0 0 0
877 0 1 0 18.714999999999996 32.398999999999994 8.982 0 0 0
121 0 1 0 12.293 36.147999999999996 9.073 0 0 0