LAMMPS data file via write_data, version 4 Feb 2025, timestep = 80000, units = metal

11640 atoms
3 atom types

0 153.23796 xlo xhi
0 147.45329576011517 ylo yhi
0 151.07316997686289 zlo zhi

Masses

1 12.01099999691024
2 1.007999999740698
3 15.99899999588435

Atoms # full

5076 0 1 0 2.662667896684924 3.1010451407758066 117.91341427387086 1 0 0
5309 0 1 0 3.3918700942113555 1.8974089291562928 117.70610709462125 1 0 0
5072 0 1 0 2.691480570625374 0.6671606084819129 117.38910789973214 1 0 0
5075 0 1 0 1.2278909779521432 3.082484926780296 117.7233650355518 1 0 0
5071 0 1 0 1.2608288233109672 0.6731197276215813 117.29280430119029 1 0 0
5070 0 1 0 0.5456334823786194 1.9023850985432984 117.43681571481936 1 0 0
5074 0 1 0 0.5504956337533722 4.3347379759572515 117.88826144565131 1 0 0
5310 0 1 0 4.811504962319601 1.8903753132332375 117.8150165838782 1 0 0
5311 0 1 0 5.558479702835999 0.6409782061087774 117.73052701374807 1 0 0
5312 0 1 0 6.929626136655283 0.6147368720744519 118.01269958387036 1 0 0
5314 0 1 0 4.767479317259097 4.317004833656338 118.30525756772346 1 0 0
5313 0 1 0 3.323283575947734 4.271408639121604 118.19637513356342 1 0 0
5315 0 1 0 5.522722508239078 3.0960344061461447 118.15170835077527 1 0 0
5316 0 1 0 6.929921540717281 3.048080660496542 118.44073383621712 1 0 0
5550 0 1 0 9.039349312718837 1.7940044613833455 118.42714347937282 1 0 0
5549 0 1 0 7.645437262421928 1.8061385093799518 118.38577555121917 1 0 0
5554 0 1 0 9.037730450560638 4.227696657376321 118.851080343168 1 0 0
5553 0 1 0 7.622642364998249 4.283782240215391 118.68999616112964 1 0 0
5318 0 1 0 4.760892048861111 6.742404571634734 118.7609903005291 1 0 0
5317 0 1 0 3.361679103420446 6.721610597756096 118.66293523512056 1 0 0
5084 0 1 0 2.548202883950114 7.940334811561587 118.87748083939255 1 0 0
5080 0 1 0 2.643619518440088 5.508848012228286 118.43572066723657 1 0 0
5083 0 1 0 1.161515948706974 7.987146920234371 118.7375547505075 1 0 0
5079 0 1 0 1.228357254329769 5.54853694141471 118.16025505419077 1 0 0
5321 0 1 0 3.276032814648682 9.128833739920118 119.16429189260418 1 0 0
5322 0 1 0 4.70540816573455 9.152126171043177 119.32483298084816 1 0 0
5078 0 1 0 0.5333000783837969 6.750542805326372 118.28623568154327 1 0 0
5323 0 1 0 5.455442073266587 7.936449116156652 119.12956615322646 1 0 0
5319 0 1 0 5.460226921898019 5.503358426474958 118.62788118166591 1 0 0
5320 0 1 0 6.904071215851033 5.502461091614272 118.852063768478 1 0 0
5324 0 1 0 6.91123594911142 7.909961110266098 119.23785178459705 1 0 0
5558 0 1 0 9.046485518731412 6.65189332042891 119.16896228641012 1 0 0
5557 0 1 0 7.650118360340569 6.665238187058665 119.03615729253292 1 0 0
5562 0 1 0 9.01432862568469 9.079341783280949 119.69937207475319 1 0 0
5561 0 1 0 7.613874140928078 9.050796872614782 119.62627423838147 1 0 0
5326 0 1 0 4.772019522248595 11.603027649503233 119.60841925711497 1 0 0
5325 0 1 0 3.328910844889798 11.605299939270584 119.46232036506053 1 0 0
5088 0 1 0 2.6103807795327008 10.380504655971057 119.29597508948115 1 0 0
5087 0 1 0 1.162302205565802 10.444812632910612 119.16458667828017 1 0 0
5086 0 1 0 0.4876331788650741 11.68552192849174 119.11562113180925 1 0 0
5082 0 1 0 0.4501434312994968 9.228472090176929 118.7798341762234 1 0 0
5092 0 1 0 2.6752487972430203 12.897180666926287 119.42243697177442 1 0 0
5091 0 1 0 1.2458400864756032 12.937603766304392 119.33791803801817 1 0 0
5327 0 1 0 5.430081130012226 10.293964455887226 119.61982819923125 1 0 0
5328 0 1 0 6.859450632149864 10.281571182960299 119.8076311603861 1 0 0
5565 0 1 0 7.588867436553674 11.542599808343702 120.01620019491352 1 0 0
5566 0 1 0 9.01232731246284 11.485694034598765 120.11327649121114 1 0 0
5331 0 1 0 5.468325325612732 12.786106592467183 119.85215497266407 1 0 0
5332 0 1 0 6.8964403948515 12.775126480487263 120.13874492532345 1 0 0
5094 0 1 0 0.5119873441338585 16.626868985271585 119.53981097100706 1 0 0
5090 0 1 0 0.525219132650477 14.178273498507272 119.35945931797214 1 0 0
5100 0 1 0 2.6529667446288916 17.79315034894927 120.03110697656706 1 0 0
5096 0 1 0 2.6308957523245655 15.322135708964101 119.80369949274164 1 0 0
5330 0 1 0 4.753355930064741 14.035450833246829 119.86428607850263 1 0 0
5329 0 1 0 3.340895608862443 14.09476943460636 119.68631228207376 1 0 0
5333 0 1 0 3.374551165326785 16.507041940112565 119.97053923760026 1 0 0
5095 0 1 0 1.2050121256461228 15.370665562060958 119.63526180737233 1 0 0
5099 0 1 0 1.2793721616472031 17.837240456616847 119.69839149498031 1 0 0
5339 0 1 0 5.450104685592624 17.706424966998473 120.41500416386604 1 0 0
5334 0 1 0 4.797272550186676 16.48801831552349 120.22073578881741 1 0 0
5335 0 1 0 5.502330825277263 15.259191775318959 120.16774309199687 1 0 0
5569 0 1 0 7.63962424067805 13.972235343175955 120.32587172983281 1 0 0
5336 0 1 0 6.931867902241188 15.234231330379767 120.33863370979972 1 0 0
5570 0 1 0 9.042372127329358 13.997956148704413 120.46413170012205 1 0 0
5573 0 1 0 7.659615609725952 16.455774960476283 120.54854510017164 1 0 0
5574 0 1 0 9.056711609799061 16.41398000594877 120.65793584796378 1 0 0
5340 0 1 0 6.922669113549278 17.683181232383333 120.58099695546372 1 0 0
5338 0 1 0 4.744105532534165 18.92688309621367 120.45889691667186 1 0 0
5341 0 1 0 3.387067969906649 21.410076061146576 120.71239349193371 1 0 0
5337 0 1 0 3.365620886864107 18.96942557928413 120.22815432539379 1 0 0
5104 0 1 0 2.6629635701565624 20.232376612448185 120.3389480749803 1 0 0
5108 0 1 0 2.626621502479022 22.623126273592746 120.85997055085436 1 0 0
5107 0 1 0 1.2170764015147775 22.672867309090783 120.55823848751072 1 0 0
5103 0 1 0 1.2898025601198142 20.291165418907763 120.11400201473629 1 0 0
5098 0 1 0 0.5762261933034395 19.012868643493675 119.75224052724134 1 0 0
5102 0 1 0 0.5434494929666437 21.454070253125575 120.2390390774315 1 0 0
5342 0 1 0 4.833142781630029 21.452070848592722 120.813235755708 1 0 0
5343 0 1 0 5.454020898924327 20.167975966088093 120.65995377724364 1 0 0
5347 0 1 0 5.491787771884707 22.649090058912986 121.07481410527608 1 0 0
5344 0 1 0 6.869385537651821 20.132095802457094 120.83816133016832 1 0 0
5581 0 1 0 7.566656944027229 21.32976356243022 121.2436826285603 1 0 0
5577 0 1 0 7.621395122195455 18.913844454831654 120.83210592391316 1 0 0
5582 0 1 0 8.9701749075046 21.336185604152643 121.42554668012582 1 0 0
5578 0 1 0 9.013233848941244 18.881789498136406 121.05649721776503 1 0 0
5348 0 1 0 6.94176774945087 22.631296741011617 121.29392252261725 1 0 0
5345 0 1 0 3.35537997219107 23.82980785542288 121.16634789488312 1 0 0
5112 0 1 0 2.686164532574531 25.07155571255298 121.30839530253571 1 0 0
5349 0 1 0 3.3886283975895815 26.263185315048826 121.64317421103122 1 0 0
5111 0 1 0 1.2811195016869332 25.062603160023485 121.15817907912215 1 0 0
5106 0 1 0 0.525134474054167 23.902883018570375 120.79691614249809 1 0 0
5116 0 1 0 2.634476467738195 27.476912015565915 121.79181328729156 1 0 0
5115 0 1 0 1.2052897969028014 27.5519313802434 121.6162029845651 1 0 0
5110 0 1 0 0.532658414464577 26.30180251384864 121.37369386708455 1 0 0
5346 0 1 0 4.804412127897585 23.882284798906813 121.34701673813748 1 0 0
5350 0 1 0 4.811166356530446 26.329328047589495 121.71559345101188 1 0 0
5351 0 1 0 5.49208368297401 25.099108143225912 121.56007623384966 1 0 0
5352 0 1 0 6.883902895429767 25.034483240033353 121.67460207868957 1 0 0
5589 0 1 0 7.605971069928174 26.20774468789281 121.8912615794954 1 0 0
5585 0 1 0 7.661365625852624 23.82092277061388 121.53019462024827 1 0 0
5590 0 1 0 9.044097636071525 26.224568907007708 121.94285674856438 1 0 0
5586 0 1 0 9.033560585999494 23.746095848695298 121.70793061732319 1 0 0
5355 0 1 0 5.5227184702523 27.50625090532726 122.04526552369487 1 0 0
5356 0 1 0 6.9479222514797065 27.51367782470848 122.06822224460376 1 0 0
5114 0 1 0 0.44974175671335614 28.733955733295506 121.89736284764868 1 0 0
5118 0 1 0 0.48255413036541145 31.1863857756906 122.28241271869776 1 0 0
5354 0 1 0 4.738814112307185 28.672418990118963 122.23603829264891 1 0 0
5353 0 1 0 3.317850643914621 28.60730894632096 122.11789675576787 1 0 0
5357 0 1 0 3.265577782543342 31.067319652595224 122.65131113666207 1 0 0
5120 0 1 0 2.5706120413342957 29.87196273362956 122.37507005005322 1 0 0
5119 0 1 0 1.152203290729332 29.928093489348154 122.19077741086893 1 0 0
5359 0 1 0 5.487866296368942 29.902261559079435 122.49220892290187 1 0 0
5360 0 1 0 6.902759674137341 29.889937377680223 122.56532880560793 1 0 0
5593 0 1 0 7.677805245258105 28.681449619383 122.37982578326445 1 0 0
5594 0 1 0 9.063787170119774 28.659460623876395 122.52444387911969 1 0 0
5122 0 1 0 0.4720190926227095 33.6418384751674 122.71067048494686 1 0 0
5123 0 1 0 1.1770697522936402 32.36885605890234 122.55012629371328 1 0 0
5358 0 1 0 4.7442180456916665 31.12382177990642 122.75837969211946 1 0 0
5597 0 1 0 7.581051551395401 31.113082081878037 122.81722516395575 1 0 0
5598 0 1 0 9.027106875073578 31.170194798977253 122.9240929757701 1 0 0
5366 0 1 0 4.704420537283881 36.11111478373552 123.20169582670245 1 0 0
5365 0 1 0 3.268438540744524 36.066157474775565 123.21645263737312 1 0 0
5362 0 1 0 4.705777736117349 33.63088127846058 123.09345062013284 1 0 0
5361 0 1 0 3.287117966180713 33.57810663255399 122.97387271294917 1 0 0
5124 0 1 0 2.551637244479532 32.335114919728916 122.75751203946078 1 0 0
5128 0 1 0 2.5616227186800526 34.84411996173054 123.13663638067621 1 0 0
5127 0 1 0 1.1604988183885656 34.85523791960029 123.0089017900131 1 0 0
5126 0 1 0 0.39363299410531505 36.14871823839214 123.04036148677837 1 0 0
5367 0 1 0 5.396907107501492 34.823053967640234 123.10491439718109 1 0 0
5363 0 1 0 5.427600742128193 32.347246524528884 122.9658748111566 1 0 0
5605 0 1 0 7.549027446723394 36.03980744004657 123.28420540510511 1 0 0
5364 0 1 0 6.90929658729482 32.33659001087571 122.96302029839762 1 0 0
5601 0 1 0 7.578168348536767 33.57695381620452 123.1608600628456 1 0 0
5606 0 1 0 8.981154294344238 36.084181903657985 123.22757186238492 1 0 0
5602 0 1 0 9.01700048486001 33.624624573080816 123.16893854180778 1 0 0
5368 0 1 0 6.864312805743126 34.799467676471174 123.24824182122744 1 0 0
5132 0 1 0 2.6041112611249435 37.32833740000649 123.38405773481512 1 0 0
5370 0 1 0 4.743040787503304 38.523586590143964 123.34809319917468 1 0 0
5369 0 1 0 3.322973351170702 38.56476670490867 123.4489112491821 1 0 0
5136 0 1 0 2.6110530763740503 39.82500016250482 123.5320576420585 1 0 0
5373 0 1 0 3.329753253690497 41.05206637920093 123.60030817128909 1 0 0
5131 0 1 0 1.1546623937358687 37.29450888510305 123.22913929012319 1 0 0
5135 0 1 0 1.1983706054939778 39.83501851822977 123.40875671585283 1 0 0
5130 0 1 0 0.4811843041355501 38.57714757201892 123.16843794311701 1 0 0
5134 0 1 0 0.46112825393899437 41.080589156691076 123.41457806020824 1 0 0
5375 0 1 0 5.466295085522192 39.77250863138796 123.57721812803334 1 0 0
5374 0 1 0 4.79538538854616 41.02720191190747 123.68051554185946 1 0 0
5371 0 1 0 5.4691637486169045 37.31027856472517 123.29465606230215 1 0 0
5376 0 1 0 6.906348150752245 39.76935425001077 123.70537149413273 1 0 0
5372 0 1 0 6.895254121753589 37.29492742286759 123.29232098135306 1 0 0
5609 0 1 0 7.599894112613175 38.57446026355897 123.47934624899456 1 0 0
5610 0 1 0 9.081911666746082 38.53188459770402 123.49042820810351 1 0 0
5613 0 1 0 7.62929774687415 41.02244159356787 123.84558450650349 1 0 0
5614 0 1 0 9.062676145597775 41.025530303676305 123.88262975028853 1 0 0
5138 0 1 0 0.5085182266942744 43.540851562995144 123.7754438112786 1 0 0
5377 0 1 0 3.319621920912187 43.581394298759854 123.81155099413296 1 0 0
5140 0 1 0 2.6331032724781607 42.327244659126286 123.7335987673914 1 0 0
5144 0 1 0 2.6784517899690816 44.79607993719188 123.9273146306779 1 0 0
5143 0 1 0 1.1919125222490576 44.77693193719922 123.9475439597134 1 0 0
5139 0 1 0 1.2277175700614344 42.2892680511268 123.6814022343855 1 0 0
5381 0 1 0 3.3884813051337086 46.00488927323388 123.83954007716062 1 0 0
5142 0 1 0 0.47046256305182615 45.95594464007633 123.95807366896156 1 0 0
5383 0 1 0 5.493891262091557 44.772986111844205 123.79518567166623 1 0 0
5379 0 1 0 5.487396610882478 42.272931207136025 123.7530458130494 1 0 0
5378 0 1 0 4.801758973834285 43.52294851032833 123.81149208553738 1 0 0
5380 0 1 0 6.878517625140039 42.264591859675065 123.84168822379374 1 0 0
5382 0 1 0 4.797852267141399 45.9919513956398 123.85338811187235 1 0 0
5384 0 1 0 6.914071157015025 44.75792767925321 123.95135314906953 1 0 0
5617 0 1 0 7.63359675419195 43.502842305930294 123.9796848720571 1 0 0
5618 0 1 0 9.08639131132972 43.4783044918018 124.06703792577734 1 0 0
5621 0 1 0 7.665754871721148 45.970223569860565 123.98975332711868 1 0 0
5622 0 1 0 9.098835407688956 45.92740731351427 124.09189856806032 1 0 0
5148 0 1 0 2.669890711520962 47.24848096328213 123.93747359373413 1 0 0
5147 0 1 0 1.2108890601715998 47.25023343463294 124.07712035329861 1 0 0
5146 0 1 0 0.509556300567272 48.51398037815655 124.10297704427228 1 0 0
5385 0 1 0 3.3616413022089384 48.49390181835039 123.9299156603897 1 0 0
5152 0 1 0 2.644351213312424 49.69082860666156 123.95066358755481 1 0 0
5151 0 1 0 1.2104727374738904 49.74817149505502 124.05050870438649 1 0 0
5387 0 1 0 5.5387254359838485 47.235297546664896 123.9363344523884 1 0 0
5386 0 1 0 4.833114538913962 48.437579132557445 123.97406287425123 1 0 0
5391 0 1 0 5.54960171621124 49.645193660902066 124.05469409150717 1 0 0
5388 0 1 0 7.002640303783113 47.24847338412972 123.98050197536448 1 0 0
5392 0 1 0 7.00274745042769 49.667565171616104 124.02072293927598 1 0 0
5625 0 1 0 7.719259889484233 48.44378220771643 123.93646041568145 1 0 0
5626 0 1 0 9.107490577209418 48.42778715515182 124.06932229141056 1 0 0
5150 0 1 0 0.5219509486269486 50.995312016786784 124.00427038846294 1 0 0
5154 0 1 0 0.5109715543629981 53.443879294941496 124.07678815755052 1 0 0
5160 0 1 0 2.7085524775887695 54.671686478869304 124.12277075225921 1 0 0
5156 0 1 0 2.6569804625285958 52.22147109167094 124.05330381580708 1 0 0
5393 0 1 0 3.4029223157942328 53.4308461884085 124.06562298113919 1 0 0
5389 0 1 0 3.3287163783260834 50.987986469606305 124.0305015940409 1 0 0
5155 0 1 0 1.26439718915635 52.25232921053746 124.06922959851164 1 0 0
5159 0 1 0 1.2731281213892 54.64885680178686 124.1315341801239 1 0 0
5399 0 1 0 5.5407430042593475 54.61602537471843 124.11765273823453 1 0 0
5390 0 1 0 4.824847803643873 50.9654103147128 124.11279207279021 1 0 0
5395 0 1 0 5.529811210899134 52.184626775766915 124.15410183046123 1 0 0
5394 0 1 0 4.826702470948441 53.41588528183672 124.10303528890748 1 0 0
5630 0 1 0 9.080251731386335 50.92076970493113 124.1782864728535 1 0 0
5400 0 1 0 6.972233007793684 54.590079314269346 124.22199314341967 1 0 0
5396 0 1 0 6.989273514229697 52.15421612817603 124.09243476390219 1 0 0
5629 0 1 0 7.6827511919197 50.90675241971933 124.06758603704576 1 0 0
5633 0 1 0 7.66635076733246 53.38108015363032 124.2295261781737 1 0 0
5634 0 1 0 9.110694607775734 53.34626746681582 124.31159034174838 1 0 0
5162 0 1 0 0.512694401605278 58.38675769290709 124.40108915203571 1 0 0
5401 0 1 0 3.411995199741587 58.36792943968724 124.37114921680293 1 0 0
5397 0 1 0 3.4284002130237634 55.926053365241074 124.14002103445742 1 0 0
5164 0 1 0 2.676916487824241 57.14411138500767 124.30310508698078 1 0 0
5168 0 1 0 2.742558909123761 59.62763138748736 124.44958419403201 1 0 0
5167 0 1 0 1.2566110989551618 59.60304990051008 124.41171411021242 1 0 0
5163 0 1 0 1.250418107844799 57.14622129354937 124.30713584944948 1 0 0
5158 0 1 0 0.5259218326219276 55.8744089693025 124.21691686509092 1 0 0
5402 0 1 0 4.828169189488097 58.34670272844249 124.38090979469163 1 0 0
5403 0 1 0 5.543406360564647 57.082503343995384 124.27868375324482 1 0 0
5398 0 1 0 4.837931043145462 55.85817867389209 124.16750266912808 1 0 0
5407 0 1 0 5.58626224908351 59.55326456843512 124.62205029324103 1 0 0
5404 0 1 0 6.931894623540439 57.057878019947694 124.3371007412094 1 0 0
5641 0 1 0 7.708633387737693 58.29700254496099 124.49706471204047 1 0 0
5637 0 1 0 7.687967396412191 55.8041928919561 124.35559414494016 1 0 0
5642 0 1 0 9.126561358391795 58.307965539779495 124.58642720287091 1 0 0
5638 0 1 0 9.113896247085076 55.85796867031022 124.36309310569582 1 0 0
5408 0 1 0 6.995106990954155 59.51830505757123 124.63237406006918 1 0 0
5166 0 1 0 0.6166694902327785 60.860775879562375 124.3607383939671 1 0 0
5170 0 1 0 0.6402757498834748 63.352634617042966 124.39571069146227 1 0 0
5405 0 1 0 3.4259640060771455 60.793234531446764 124.51692195536408 1 0 0
5409 0 1 0 3.4508459533708704 63.246998329137824 124.60597229807384 1 0 0
5172 0 1 0 2.7502949353722124 62.05759188567712 124.48047241893573 1 0 0
5171 0 1 0 1.3222026690483302 62.12343313212782 124.38512583772639 1 0 0
5411 0 1 0 5.595135993504792 61.98795726119608 124.82760439496178 1 0 0
5410 0 1 0 4.869680677833992 63.24640624855222 124.74945392552202 1 0 0
5406 0 1 0 4.84892568620171 60.810872261890964 124.7041267677349 1 0 0
5412 0 1 0 7.0052855192439685 61.98262493038482 124.86091213783672 1 0 0
5649 0 1 0 7.69355398828163 63.24273670687444 124.93975153131913 1 0 0
5650 0 1 0 9.167434118709297 63.246796043804096 124.94444996239619 1 0 0
5645 0 1 0 7.694065612115684 60.76479957331474 124.72413555610092 1 0 0
5646 0 1 0 9.096881220123722 60.787668932691304 124.83342712783545 1 0 0
5415 0 1 0 5.545330921745271 64.47941790756704 124.7778109419392 1 0 0
5416 0 1 0 6.945833372760847 64.45423440898281 124.94976044088583 1 0 0
5174 0 1 0 0.583866327328855 65.80073137441454 124.57594755218923 1 0 0
5178 0 1 0 0.5925956591550307 68.20510576125825 124.62517954747429 1 0 0
5417 0 1 0 3.4350485324926496 68.24579252911751 124.81334247013724 1 0 0
5413 0 1 0 3.451476809659692 65.72044590172638 124.7724996968625 1 0 0
5176 0 1 0 2.7530598076074297 64.5191734020062 124.72072258744386 1 0 0
5180 0 1 0 2.7290700626408917 67.03354969888551 124.77122786489804 1 0 0
5179 0 1 0 1.32554751334197 66.97257936722471 124.62437262578395 1 0 0
5175 0 1 0 1.3154068448968483 64.54781396622884 124.55990539367703 1 0 0
5414 0 1 0 4.859032924414792 65.73575975279948 124.78992338824489 1 0 0
5419 0 1 0 5.575672608209853 66.97661289435018 124.78030893459257 1 0 0
5418 0 1 0 4.8518533158254105 68.18811759808256 124.78485049667755 1 0 0
5420 0 1 0 6.995410601065521 66.9712700503427 124.75797761723122 1 0 0
5653 0 1 0 7.701222645461057 65.71001228900113 124.86257178421786 1 0 0
5657 0 1 0 7.725219009870795 68.18594373147994 124.71708398792252 1 0 0
5654 0 1 0 9.166223370971425 65.73624672103948 124.84759562679511 1 0 0
5658 0 1 0 9.13615215022888 68.20066620064661 124.63529537406266 1 0 0
5182 0 1 0 0.5977879388128519 70.68053480171987 124.81143118710776 1 0 0
5425 0 1 0 3.438072294723055 73.1430489696972 124.8611927040055 1 0 0
5188 0 1 0 2.683903759123048 71.92707406313846 124.8257845085889 1 0 0
5421 0 1 0 3.4509177714795656 70.667037063832 124.7462923954962 1 0 0
5184 0 1 0 2.6853504425213663 69.44785361600232 124.70990178322855 1 0 0
5187 0 1 0 1.2854388108739536 71.92155998566966 124.83192235180084 1 0 0
5183 0 1 0 1.2908341599414594 69.42546394582097 124.71128707435354 1 0 0
5186 0 1 0 0.5939056388769796 73.14450683231384 124.9528628871257 1 0 0
5665 0 1 0 7.718028497886577 73.09016307166559 124.2144662634262 1 0 0
5662 0 1 0 9.158294988094747 70.5932530825769 124.38283323157863 1 0 0
5666 0 1 0 9.117137963406135 73.05956088075291 124.09508659421242 1 0 0
5426 0 1 0 4.872112864029302 73.0802380503035 124.60059439044325 1 0 0
5427 0 1 0 5.5743754146939 71.85455669729494 124.61316254588552 1 0 0
5423 0 1 0 5.5288417011792275 69.41384022900306 124.78728140464528 1 0 0
5422 0 1 0 4.8431895196204655 70.66119011185117 124.70650746839323 1 0 0
5428 0 1 0 7.011384704165736 71.8688655345148 124.42017542509572 1 0 0
5661 0 1 0 7.708772433010241 70.63666555481015 124.52317713585438 1 0 0
5424 0 1 0 7.0212728439152565 69.44055417989189 124.67735780662113 1 0 0
5459 0 1 0 5.610579473607479 91.5777234310514 122.64192754469777 1 0 0
5693 0 1 0 7.752263789845455 90.31016856450327 122.42446252462118 1 0 0
5690 0 1 0 9.185310172924654 87.82089060590741 122.55241288347457 1 0 0
5694 0 1 0 9.182398513174322 90.3265262757206 122.3035172044185 1 0 0
5460 0 1 0 7.069206530934982 91.54967263939604 122.41672517476255 1 0 0
5429 0 1 0 3.554884354569769 75.59770863088359 124.55448687601384 1 0 0
5196 0 1 0 2.792390075476927 76.80872330918466 124.40669788152748 1 0 0
5433 0 1 0 3.4703373460005653 78.02314703473662 124.28814651880018 1 0 0
5190 0 1 0 0.609629187195245 75.64412791517702 124.76134591329821 1 0 0
5194 0 1 0 0.6057731411374172 78.06021530133373 124.4693604537347 1 0 0
5191 0 1 0 1.3011057837322166 74.43771922939003 124.87138434720671 1 0 0
5192 0 1 0 2.741063630067143 74.43391001596589 124.81636531781592 1 0 0
5195 0 1 0 1.3551690982170757 76.83766326372402 124.52575889150418 1 0 0
5435 0 1 0 5.6372271773342995 76.85985793603243 124.21072552501069 1 0 0
5431 0 1 0 5.624127044329355 74.34568454899343 124.45760321221336 1 0 0
5430 0 1 0 4.928936979104102 75.58971291970339 124.44053485352022 1 0 0
5434 0 1 0 4.929674412610981 78.07020257992302 124.16775141661643 1 0 0
5432 0 1 0 6.9986572875680615 74.32296301286613 124.27578997212355 1 0 0
5436 0 1 0 7.044788252332255 76.80239891615378 123.93967827294966 1 0 0
5669 0 1 0 7.747728738788997 75.57724220583415 123.97637535408269 1 0 0
5670 0 1 0 9.18081964843371 75.55713839928302 123.73450549568007 1 0 0
5674 0 1 0 9.230361255853627 78.01586203028276 123.42749019462363 1 0 0
5673 0 1 0 7.79406756346172 77.99788976634763 123.7868309851946 1 0 0
5198 0 1 0 0.6907215499094658 80.59257788722775 124.57392204578939 1 0 0
5204 0 1 0 2.8590806920449463 81.80274028780715 124.37355122728185 1 0 0
5437 0 1 0 3.5172642499423072 80.52261930018179 124.26897294980202 1 0 0
5200 0 1 0 2.7896046899409375 79.30418154029422 124.30214845509363 1 0 0
5203 0 1 0 1.4923602627379062 81.81491117870789 124.65539799698728 1 0 0
5199 0 1 0 1.366176482514955 79.31976871388983 124.44929565758396 1 0 0
5439 0 1 0 5.645869269160658 79.2890119875919 123.9597420660318 1 0 0
5443 0 1 0 5.665442180867269 81.77553399948951 123.84997066525966 1 0 0
5438 0 1 0 4.983659113284732 80.49272310352347 123.9854593218948 1 0 0
5444 0 1 0 7.105485585950455 81.7389571933981 123.7050998019364 1 0 0
5678 0 1 0 9.215837215259546 80.51667746414486 123.36425709531309 1 0 0
5440 0 1 0 7.06514783590159 79.2936427715166 123.79867304944445 1 0 0
5677 0 1 0 7.787988241647897 80.50089567208958 123.69988630219657 1 0 0
5682 0 1 0 9.23335185059988 82.92023384312384 123.21136094691279 1 0 0
5206 0 1 0 0.7909261185499963 85.55738327435245 124.43591079165473 1 0 0
5212 0 1 0 2.876880274791209 86.78253516189822 123.9776983794677 1 0 0
5445 0 1 0 3.569500312548118 85.52409234690437 123.95681486277333 1 0 0
5208 0 1 0 2.880147801503134 84.26487330925404 124.21958066718408 1 0 0
5441 0 1 0 3.557542059093449 83.05365756523895 124.09345710668516 1 0 0
5211 0 1 0 1.4379622602344146 86.7835960503046 124.20453018116808 1 0 0
5207 0 1 0 1.4424792042024173 84.32266757972216 124.57008586706327 1 0 0
5202 0 1 0 0.8095925788996916 83.05366307704898 124.72476777469365 1 0 0
5442 0 1 0 4.978774176142966 83.01780769327382 123.95832023580405 1 0 0
5446 0 1 0 4.976624088305955 85.49901921528773 123.67864475424122 1 0 0
5451 0 1 0 5.715196423076201 86.69661856626396 123.47749139335512 1 0 0
5447 0 1 0 5.697432706054171 84.26706425220121 123.7031800180706 1 0 0
5448 0 1 0 7.1034444054512536 84.22846766544161 123.46489583754239 1 0 0
5452 0 1 0 7.058113831832736 86.69917762139768 123.15741120616083 1 0 0
5681 0 1 0 7.782883683136974 83.01465037321951 123.49347579373043 1 0 0
5685 0 1 0 7.792248418025094 85.46943132373163 123.1717310621932 1 0 0
5686 0 1 0 9.164375883413111 85.36235212258241 122.82971623262485 1 0 0
5210 0 1 0 0.6821582209806557 87.99780765678173 124.29282830624447 1 0 0
5216 0 1 0 2.8397218906439563 89.1979633697903 123.74988250172237 1 0 0
5449 0 1 0 3.5869735699010152 87.98229811663558 123.81624759207673 1 0 0
5453 0 1 0 3.5441437497859565 90.38442229471892 123.42142807204331 1 0 0
5220 0 1 0 2.8822969977289308 91.63199724174913 123.28746329271321 1 0 0
5219 0 1 0 1.4503383504183975 91.7014558097703 123.56508817329764 1 0 0
5215 0 1 0 1.4272730756970158 89.22477004395788 123.9721166075859 1 0 0
5214 0 1 0 0.759596214001846 90.5145909143938 123.82311576716339 1 0 0
5450 0 1 0 4.997186269508499 87.9469509384305 123.57572030953001 1 0 0
5454 0 1 0 4.951195438224694 90.35209225700117 123.07368644844681 1 0 0
5455 0 1 0 5.706005922877172 89.13948847587231 123.21110958927922 1 0 0
5689 0 1 0 7.8041227480773685 87.87824115718064 122.9025117379139 1 0 0
5456 0 1 0 7.099958703388752 89.12977190331287 122.81509065568791 1 0 0
5461 0 1 0 3.541659950234604 95.29655973180456 122.48124621341337 1 0 0
5228 0 1 0 2.811886695602136 96.53771853514613 122.40230574881842 1 0 0
5227 0 1 0 1.4760505412159093 96.55710810603784 122.69501529977137 1 0 0
5458 0 1 0 4.891692284441532 92.78762469774422 122.60723636583492 1 0 0
5462 0 1 0 4.9729169524238115 95.26515576162986 122.24498782972873 1 0 0
5463 0 1 0 5.65508582354347 94.02605258873815 122.31063433566317 1 0 0
5467 0 1 0 5.613053215798493 96.42423854953043 121.75268844791275 1 0 0
5702 0 1 0 9.184875708588073 95.15280842239076 121.4904439845343 1 0 0
5468 0 1 0 7.069028740048558 96.35867003927946 121.55960334515463 1 0 0
5464 0 1 0 7.00837429034654 93.98789285276094 122.05627765508818 1 0 0
5697 0 1 0 7.779928745601103 92.76094877125215 122.20326588139031 1 0 0
5701 0 1 0 7.758056443760492 95.15376493152081 121.66818244275643 1 0 0
5698 0 1 0 9.181100100418282 92.80114844580434 122.00912390596436 1 0 0
5226 0 1 0 0.7584079254906523 97.79663440584206 122.47878749905868 1 0 0
5469 0 1 0 3.445108245546963 100.13013055720353 121.54010292391217 1 0 0
5232 0 1 0 2.7922109653766887 98.94804507663207 121.91827817792945 1 0 0
5465 0 1 0 3.5112480834943836 97.72878387485625 121.94952084153053 1 0 0
5231 0 1 0 1.4215099840726078 98.99150373568078 122.19199368882934 1 0 0
5236 0 1 0 2.7609601222960123 101.34542808120369 121.422974322499 1 0 0
5230 0 1 0 0.6440689293668794 100.21009104799631 122.08916069930956 1 0 0
5471 0 1 0 5.532177037074093 98.8683680907074 121.25425101219176 1 0 0
5470 0 1 0 4.834742058329345 100.10050230174586 121.23060972602147 1 0 0
5466 0 1 0 4.868005208245895 97.6605248321908 121.68984134409263 1 0 0
5472 0 1 0 6.967288840689857 98.85794395170267 121.07768561808138 1 0 0
5705 0 1 0 7.7023923811665505 97.59143766655697 121.16507477430982 1 0 0
5709 0 1 0 7.657827164279502 100.05037336997077 120.63807027415508 1 0 0
5706 0 1 0 9.082103321479803 97.5382066714249 120.93062140064944 1 0 0
5710 0 1 0 9.085355092514304 100.06535611825028 120.4794742095662 1 0 0
5475 0 1 0 5.562764238176811 101.30537571573595 120.89931791286328 1 0 0
5476 0 1 0 6.919519053242916 101.2561038493497 120.56619360263521 1 0 0
5234 0 1 0 0.6209649240183543 102.60525435277769 121.6112878086967 1 0 0
5238 0 1 0 0.6279499456912323 105.09854661670994 121.13384228767939 1 0 0
5473 0 1 0 3.424086771529491 102.54365509406107 120.96675876730818 1 0 0
5477 0 1 0 3.414114512012963 105.05143999447847 120.63563307542103 1 0 0
5240 0 1 0 2.696334404433433 103.78763916819237 120.88624092313776 1 0 0
5235 0 1 0 1.3457304317920895 101.4245738910811 121.71957087565502 1 0 0
5239 0 1 0 1.3114668947479273 103.81078482331519 121.25010380493569 1 0 0
5479 0 1 0 5.471038657555692 103.75555503979244 120.47738488924878 1 0 0
5478 0 1 0 4.824139827999226 104.9628546630844 120.47613555457868 1 0 0
5474 0 1 0 4.82535223958927 102.50520646299806 120.7768441439577 1 0 0
5480 0 1 0 6.906459024664255 103.70646033507992 120.20616607090723 1 0 0
5713 0 1 0 7.595055601910021 102.4793601459472 120.24409879918508 1 0 0
5717 0 1 0 7.60578164650943 104.92696999288455 119.9447477929298 1 0 0
5714 0 1 0 8.999834113277215 102.49136138517373 119.9597744895843 1 0 0
5718 0 1 0 9.03272037100098 104.94442055026838 119.72955887620917 1 0 0
5246 0 1 0 0.5860053998027724 109.99694630095256 120.39559861137285 1 0 0
5242 0 1 0 0.5829620952543407 107.51150779824609 120.77695929337973 1 0 0
5481 0 1 0 3.3848120848147065 107.45024674599303 120.31496534790915 1 0 0
5485 0 1 0 3.393534152531054 109.919602690858 120.03704479958041 1 0 0
5248 0 1 0 2.699081111186678 108.7044522786764 120.27619912842333 1 0 0
5244 0 1 0 2.7028233951169236 106.31802896350305 120.60187405406336 1 0 0
5247 0 1 0 1.2323244348272646 108.72048378303256 120.40730947830146 1 0 0
5243 0 1 0 1.3199766226927097 106.27826944648616 120.89800253283445 1 0 0
5726 0 1 0 9.06358045299428 109.91535374054037 119.25956320600962 1 0 0
5725 0 1 0 7.629855393247294 109.89617297633211 119.392732765121 1 0 0
5722 0 1 0 9.078408389934147 107.42308715792683 119.57047536858924 1 0 0
5487 0 1 0 5.511125339652116 108.66267327949 119.83473621489165 1 0 0
5486 0 1 0 4.810576405436008 109.88641373702616 119.77718806799898 1 0 0
5482 0 1 0 4.799631367486301 107.41962665207663 120.06196342420985 1 0 0
5483 0 1 0 5.464638012104649 106.17317484358729 120.0752254287097 1 0 0
5721 0 1 0 7.617915846331964 107.40790627119375 119.6518123217726 1 0 0
5488 0 1 0 6.912944005690241 108.64340908601244 119.59840165566413 1 0 0
5484 0 1 0 6.911374530757674 106.15315057790943 119.83867252751577 1 0 0
5222 0 1 0 0.7320513554481282 95.37122146701599 123.01408344110814 1 0 0
5457 0 1 0 3.4940257207072922 92.84007966621249 122.91050752259288 1 0 0
5224 0 1 0 2.863109637601315 94.12630436975691 122.80690882973882 1 0 0
5223 0 1 0 1.4577289929192092 94.19888697679889 123.08671662014949 1 0 0
5218 0 1 0 0.7860159123238407 92.97196904415729 123.45614662787285 1 0 0
5746 0 1 0 8.992068172642874 122.20477037161633 117.95129425740504 1 0 0
5280 0 1 0 2.5499564367058185 128.35476490330245 118.01572916748056 1 0 0
5514 0 1 0 4.660536163399762 127.0810860159652 117.87235655590017 1 0 0
5515 0 1 0 5.384437570755919 125.83284818703508 117.81558967778189 1 0 0
5519 0 1 0 5.393988659702861 128.31821638259584 117.6289757204338 1 0 0
5753 0 1 0 7.497699828107207 127.07359501644063 117.40383254669877 1 0 0