LAMMPS (4 Feb 2025)
OMP_NUM_THREADS environment is not set. Defaulting to 1 thread. (src/comm.cpp:99)
  using 1 OpenMP thread(s) per MPI task
# LAMMPS script for running NVT simulation

units       metal
dimension   3
boundary    p p p
atom_style  full
atom_modify map yes

newton      on

read_data   ../start.lammps-data
Reading data file ...
  orthogonal box = (0 0 0) to (154.008 148.2 151.07609)
  12 by 8 by 8 MPI processor grid
  reading atoms ...
  10440 atoms
  reading velocities ...
  10440 velocities
Finding 1-2 1-3 1-4 neighbors ...
  special bond factors lj:    0        0        0       
  special bond factors coul:  0        0        0       
     0 = max # of 1-2 neighbors
     0 = max # of 1-3 neighbors
     0 = max # of 1-4 neighbors
     1 = max # of special neighbors
  special bonds CPU = 3.523 seconds
  read_data CPU = 3.690 seconds

pair_style  symmetrix/mace
pair_coeff  * * ../../../../00-common/models/ch2o-dens-inv_swa-1-6-8.json C H O
Loading MACE model from '../../../../00-common/models/ch2o-dens-inv_swa-1-6-8.json' ... success
  mapping LAMMPS type 1 (C) to MACE type 1
  mapping LAMMPS type 2 (H) to MACE type 0
  mapping LAMMPS type 3 (O) to MACE type 2

variable t equal step

group graphene type 1
8640 atoms in group graphene
group H2O type 2 3
1800 atoms in group H2O

thermo 1000

######### NVT equilibration for 50 ps #############

dump DUMP1 all atom 100 nvt_equi.lammpstrj
timestep 0.001
fix NVT1 graphene nvt temp 300 300 0.1
fix NVT2 H2O nvt temp 300 300 0.1
run 50000
Neighbor list info ...
  update: every = 1 steps, delay = 0 steps, check = yes
  max neighbors/atom: 2000, page size: 100000
  master list distance cutoff = 8
  ghost atom cutoff = 8
  binsize = 4, bins = 39 38 38
  1 neighbor lists, perpetual/occasional/extra = 1 0 0
  (1) pair symmetrix/mace, perpetual
      attributes: full, newton on
      pair build: full/bin
      stencil: full/bin/3d
      bin: standard
Per MPI rank memory allocation (min/avg/max) = 5.916 | 6.223 | 7.985 Mbytes
   Step          Temp          E_pair         E_mol          TotEng         Press     
         0   302.51548     -1621947.3      0             -1621539.1      42.64941     
      1000   299.8977      -1622011        0             -1621606.3      103.96647    
      2000   303.00259     -1622004.7      0             -1621595.8      53.768544    
      3000   299.3167      -1622009.8      0             -1621605.9      33.38262     
      4000   300.38972     -1622025.2      0             -1621619.9      36.536131    
      5000   302.68518     -1622017.2      0             -1621608.8      28.119822    
      6000   298.56961     -1622017.2      0             -1621614.3      44.949263    
      7000   297.27455     -1622019.1      0             -1621617.9      76.570397    
      8000   302.08506     -1622020.3      0             -1621612.7      41.257713    
      9000   300.7721      -1622016.6      0             -1621610.8      27.235049    
     10000   300.20715     -1622024.4      0             -1621619.3      31.444296    
     11000   302.70518     -1622020.3      0             -1621611.9      60.149325    
     12000   297.09672     -1622015        0             -1621614.1      68.610107    
     13000   301.04109     -1622017        0             -1621610.8      32.873838    
     14000   295.71112     -1622021.3      0             -1621622.3     -9.0744473    
     15000   298.35158     -1622018.1      0             -1621615.5      6.6531322    
     16000   298.86343     -1622021.1      0             -1621617.8      23.736894    
     17000   299.76648     -1622018.5      0             -1621614        43.375286    
     18000   300.58306     -1622016        0             -1621610.4      34.265017    
     19000   297.17659     -1622022.7      0             -1621621.7      51.303288    
     20000   298.81619     -1622021.1      0             -1621617.9      40.350213    
     21000   300.19999     -1622019.8      0             -1621614.7      42.179437    
     22000   298.37405     -1622016.1      0             -1621613.5      19.144209    
     23000   299.84075     -1622021.1      0             -1621616.6      26.64402     
     24000   301.97372     -1622022.9      0             -1621615.4     -3.5777634    
     25000   297.34967     -1622023.8      0             -1621622.6      22.682459    
     26000   300.6713      -1622014.9      0             -1621609.2      30.517967    
     27000   300.04147     -1622023.3      0             -1621618.4      77.010792    
     28000   299.43493     -1622018.7      0             -1621614.7      63.259797    
     29000   303.08979     -1622016.4      0             -1621607.5      37.147428    
     30000   297.82009     -1622015.6      0             -1621613.7      43.764577    
     31000   301.20965     -1622015.2      0             -1621608.8      85.390289    
     32000   301.78546     -1622020        0             -1621612.8      75.556567    
     33000   300.53123     -1622017.9      0             -1621612.3      87.413429    
     34000   299.1672      -1622022        0             -1621618.3      31.746286    
     35000   299.51375     -1622020.3      0             -1621616.1      3.1250567    
     36000   298.40522     -1622021.6      0             -1621619        22.797183    
     37000   300.95071     -1622031.1      0             -1621625        57.608211    
     38000   300.42245     -1622016.9      0             -1621611.5      69.141064    
     39000   296.4445      -1622020        0             -1621620        34.172891    
     40000   299.46984     -1622020.8      0             -1621616.7      29.521192    
     41000   302.50868     -1622021.8      0             -1621613.6      36.050677    
     42000   301.03672     -1622015.4      0             -1621609.2      34.487201    
     43000   298.90838     -1622022.6      0             -1621619.2      11.317819    
     44000   301.80025     -1622009        0             -1621601.7      4.8146793    
     45000   300.39602     -1622017.5      0             -1621612.2      2.9336571    
     46000   298.05609     -1622018.5      0             -1621616.3      19.138767    
     47000   299.07363     -1622019.5      0             -1621615.9      49.512749    
     48000   300.92548     -1622017.4      0             -1621611.4      29.989962    
     49000   295.42848     -1622019.9      0             -1621621.3      29.420485    
     50000   296.61783     -1622018.4      0             -1621618.1      27.119679    
Loop time of 60871.7 on 768 procs for 50000 steps with 10440 atoms

Performance: 0.071 ns/day, 338.176 hours/ns, 0.821 timesteps/s, 8.575 katom-step/s
100.0% CPU use with 768 MPI tasks x 1 OpenMP threads

MPI task timing breakdown:
Section |  min time  |  avg time  |  max time  |%varavg| %total
---------------------------------------------------------------
Pair    | 0.16188    | 5666.4     | 60518      |15113.6 |  9.31
Bond    | 0.0031931  | 0.0064438  | 0.026574   |   5.8 |  0.00
Neigh   | 0.019236   | 0.13878    | 5.0713     |  99.5 |  0.00
Comm    | 0.42615    | 3184.4     | 22934      |11173.3 |  5.23
Output  | 0.61405    | 2.9474     | 5.7187     |  89.0 |  0.00
Modify  | 4.5299     | 52013      | 60864      |7265.1 | 85.45
Other   |            | 4.587      |            |       |  0.01

Nlocal:        13.5938 ave         409 max           0 min
Histogram: 672 0 86 3 1 1 1 0 3 1
Nghost:        98.1133 ave        1121 max           0 min
Histogram: 566 4 80 94 10 8 2 1 1 2
Neighs:              0 ave           0 max           0 min
Histogram: 768 0 0 0 0 0 0 0 0 0
FullNghs:      1312.15 ave       72225 max           0 min
Histogram: 749 9 4 0 2 0 0 0 3 1

Total # of neighbors = 1007734
Ave neighs/atom = 96.526245
Ave special neighs/atom = 0
Neighbor list builds = 2268
Dangerous builds = 0

write_restart nvt_equi.restart.*
System init for write_restart ...
write_data nvt_equi_final.lammps-data
System init for write_data ...

Total wall time: 16:54:50
