LAMMPS data file via write_data, version 4 Feb 2025, timestep = 50000, units = metal

10440 atoms
3 atom types

0 154.00799999999998 xlo xhi
0 148.2 ylo yhi
0 151.07609208607428 zlo zhi

Masses

1 12.01099999691024
2 1.007999999740698
3 15.99899999588435

Atoms # full

7313 0 1 0 0.06441945271869995 5.756964509788617 61.593155151775264 1 0 0
7316 0 1 0 0.8556851522825707 9.4231684658895 61.3547998108572 1 0 0
7988 0 1 0 2.9543650048161334 10.749173362360855 61.44531301537168 1 0 0
7269 0 1 0 2.285322507350777 11.976040381798459 61.32728346523005 1 0 0
7267 0 1 0 2.308008917944521 9.443050154786699 61.42522142613249 1 0 0
7990 0 1 0 2.9681328685687802 13.200257967981257 61.322975059503094 1 0 0
7318 0 1 0 0.8694324144696742 11.943987414375936 61.26468971232097 1 0 0
7311 0 1 0 0.1209638348273293 3.2816931644273457 61.740023860628995 1 0 0
7999 0 1 0 4.391700819308408 13.194998180747843 61.46098711115037 1 0 0
8010 0 1 0 7.288790531285528 13.09402497861218 61.386741780263016 1 0 0
8009 0 1 0 6.569811065710273 11.899286546456587 61.4221694314898 1 0 0
8019 0 1 0 8.70657506862247 13.126814646475696 61.24794528399104 1 0 0
8029 0 1 0 10.81919623980255 11.893369263826116 61.16494034319608 1 0 0
8030 0 1 0 11.545302484652664 13.184822234159354 61.17695152476447 1 0 0
7323 0 1 0 2.193607208200104 16.887491865136766 61.16435305349339 1 0 0
8042 0 1 0 2.9421184291415297 15.643178006384531 61.17982447286834 1 0 0
7320 0 1 0 0.8401075109878715 14.360169121248505 61.198965034145466 1 0 0
7261 0 1 0 2.2439000694775357 14.411361799266777 61.180107453625375 1 0 0
7372 0 1 0 0.7532890735325601 16.89689536571049 61.11043437828146 1 0 0
8044 0 1 0 2.9330030920085384 18.135446661428695 61.12771169544051 1 0 0
7373 0 1 0 0.12365376041923326 18.120292023859722 61.11733318267089 1 0 0
8008 0 1 0 7.249404273371192 10.690776093163057 61.31156698832264 1 0 0
8051 0 1 0 4.36462086796663 15.614697727616331 61.35021350831702 1 0 0
8053 0 1 0 4.393043777469781 18.051418170032132 61.035400840410766 1 0 0
8052 0 1 0 5.098581976022672 16.841293000585427 61.32763123466627 1 0 0
8001 0 1 0 6.578809086951538 14.367191362635477 61.40949189515076 1 0 0
8000 0 1 0 5.132420610380111 14.371025379979878 61.40750493892326 1 0 0
8062 0 1 0 7.266432763033013 15.642469992348627 61.36779227563931 1 0 0
8064 0 1 0 7.205746261786211 18.08888309180496 61.01823654515132 1 0 0
8063 0 1 0 6.509620322096166 16.870004322542094 61.2649639443184 1 0 0
8071 0 1 0 8.673738547878067 15.602584025169413 61.24545063280862 1 0 0
8073 0 1 0 8.63279293726112 18.051322232987516 61.05756898758867 1 0 0
8072 0 1 0 9.41096908383458 16.86171303907518 61.22248464044695 1 0 0
8020 0 1 0 9.416265094372651 14.34320926072478 61.19455974096547 1 0 0
8021 0 1 0 10.830488385026474 14.416820343186519 61.16700369129017 1 0 0
8083 0 1 0 10.840435208580702 16.854533474457483 61.2128053636944 1 0 0
8082 0 1 0 11.54373348371987 15.651098696324837 61.21869585801457 1 0 0
8084 0 1 0 11.472462142256076 18.095202191962507 61.310528415860475 1 0 0
7260 0 1 0 0.8222542053196585 2.0557948198239044 61.7229064293193 1 0 0
7312 0 1 0 0.7748077228075223 4.5366421050259 61.703204040175734 1 0 0
7263 0 1 0 2.1752580903317633 4.5736449310025264 61.72652868898917 1 0 0
8016 0 1 0 9.404689461990635 9.443778610183358 61.29352798117763 1 0 0
7982 0 1 0 2.9494183960593667 3.3474314985136857 61.646374774710665 1 0 0
7201 0 1 0 2.240857595726362 2.0732318447728115 61.66153281484512 1 0 0
7939 0 1 0 4.379253924729022 0.8475848804694913 61.74746665599164 1 0 0
7930 0 1 0 2.948626148370225 0.8244883131565245 61.62973208272684 1 0 0
8018 0 1 0 9.395860756783136 11.910839224514088 61.1507880019875 1 0 0
7950 0 1 0 7.19600354834604 0.9155224464988307 61.76965843845055 1 0 0
8002 0 1 0 7.274490596400167 3.3501654537205923 61.67157155402842 1 0 0
7992 0 1 0 5.072108304202191 4.551853566255173 61.69898657385957 1 0 0
8003 0 1 0 6.551627385886665 4.592301547977499 61.64931371293426 1 0 0
7991 0 1 0 4.383908400422079 3.325164534394243 61.635843288656645 1 0 0
7941 0 1 0 6.525136111237245 2.1014675578796598 61.75465682526492 1 0 0
7940 0 1 0 5.095166245845021 2.0940922741347148 61.708445885273804 1 0 0
7959 0 1 0 8.616509353025359 0.8832594033521852 61.629236428214064 1 0 0
8011 0 1 0 8.699996298772087 3.3427047602336506 61.68291544526829 1 0 0
8022 0 1 0 11.536491551401802 3.3224261720732007 61.63896377859798 1 0 0
7970 0 1 0 11.508143343292623 0.8262391399377261 61.61661938386816 1 0 0
7961 0 1 0 10.812069930619963 2.101344456199487 61.62890773963486 1 0 0
7960 0 1 0 9.394296820333125 2.078301841383557 61.73756683344452 1 0 0
8012 0 1 0 9.378543961287637 4.556646439509909 61.644626071298156 1 0 0
8023 0 1 0 10.81265938859279 4.546723015360152 61.5608705641494 1 0 0
7314 0 1 0 0.8244287482884225 6.98031732534462 61.53139142488561 1 0 0
7984 0 1 0 2.9083394979374915 5.787441894210193 61.66327961380422 1 0 0
7265 0 1 0 2.2281822852229287 6.996516171885063 61.64378583802736 1 0 0
7986 0 1 0 2.9895962131816165 8.244023883808541 61.570815955683216 1 0 0
8017 0 1 0 8.699531100753843 10.67281056843685 61.2836073959748 1 0 0
8027 0 1 0 10.824831830288085 9.468433044221268 61.259652480943636 1 0 0
7995 0 1 0 4.380906333348107 8.227807088251566 61.62026144361849 1 0 0
7993 0 1 0 4.366792394475369 5.774682172290489 61.67331478343963 1 0 0
8004 0 1 0 7.2442358180568 5.8515340734904155 61.616406901928165 1 0 0
8006 0 1 0 7.283353365677458 8.225163270562923 61.53550896853791 1 0 0
8005 0 1 0 6.578212960687066 7.073323002875138 61.631049692233795 1 0 0
7994 0 1 0 5.094436421076882 7.009927816672673 61.644074128916955 1 0 0
8015 0 1 0 8.703142061109364 8.241397626692997 61.41810928952135 1 0 0
8013 0 1 0 8.69316815858107 5.804291948096718 61.57144601124441 1 0 0
8024 0 1 0 11.504268624580746 5.785464367374742 61.516914141263534 1 0 0
8025 0 1 0 10.850873990765596 7.061957421154142 61.48164718195378 1 0 0
8026 0 1 0 11.54844685313213 8.305039032644483 61.403196756947224 1 0 0
8014 0 1 0 9.405103838132495 7.023047670996676 61.50308557392959 1 0 0
8028 0 1 0 11.551043215822963 10.686992872336601 61.22400972735007 1 0 0
7997 0 1 0 4.42271962649013 10.72874831389674 61.52547596959262 1 0 0
8007 0 1 0 6.572177557637504 9.470093915208283 61.434641224184126 1 0 0
7998 0 1 0 5.170302691074275 11.928864143074348 61.50006329320587 1 0 0
7996 0 1 0 5.089939768893021 9.483483569380155 61.556248833179296 1 0 0
7315 0 1 0 0.12211693068896362 8.238787313556347 61.45103181548493 1 0 0
7259 0 1 0 0.05935714213699983 0.8025964307621365 61.842969574312164 1 0 0
7371 0 1 0 0.07364184530900872 15.638961891253789 61.10927314912962 1 0 0
7319 0 1 0 0.1341725028725892 13.14505031909383 61.19069493167198 1 0 0
7317 0 1 0 0.19579022979512004 10.672651289860928 61.286905296474146 1 0 0
8046 0 1 0 2.9323215315276845 20.55594287010513 60.84700582940445 1 0 0
7374 0 1 0 0.8290078543858009 19.360427382287146 61.09498586981945 1 0 0
7327 0 1 0 2.1649734583100937 21.792357059497057 60.81625265200104 1 0 0
7325 0 1 0 2.232527877729409 19.382180708588855 61.00612071028841 1 0 0
7376 0 1 0 0.7542051651732806 21.79255385838149 60.87395338716958 1 0 0
8048 0 1 0 2.915111890853434 23.02142402251241 60.56493874180345 1 0 0
8137 0 1 0 8.593468657750106 35.320516054385 60.140444355432614 1 0 0
7375 0 1 0 0.08573286297832391 20.571970770686274 61.0299772676291 1 0 0
8055 0 1 0 4.360454333229105 20.481553298591102 60.694294061027314 1 0 0
8057 0 1 0 4.3297486372314475 22.997545087261987 60.572735303329786 1 0 0
8066 0 1 0 7.166105478223385 20.572028634227472 60.825420858105396 1 0 0
8065 0 1 0 6.481658714141934 19.329117881371747 60.882700090882736 1 0 0
8054 0 1 0 5.082021939681872 19.26609705130937 60.744212411589395 1 0 0
8056 0 1 0 5.048078540030748 21.725900308992802 60.57793753206273 1 0 0
8067 0 1 0 6.473974973129483 21.805525975740775 60.61631094268268 1 0 0
8068 0 1 0 7.202290487109515 23.022220863146742 60.57087565611262 1 0 0
8075 0 1 0 8.597052983747211 20.580671241969114 60.800671923153736 1 0 0
8077 0 1 0 8.632706466917275 23.023158776919516 60.64803361980364 1 0 0
8086 0 1 0 11.408371985782281 20.58253073584558 61.033708402717224 1 0 0
8076 0 1 0 9.367577308671493 21.79385322772352 60.67433180365557 1 0 0
8085 0 1 0 10.715067402847172 19.337140335811988 61.1884971444049 1 0 0
8074 0 1 0 9.328691902098441 19.352901271028273 60.978030046388525 1 0 0
8087 0 1 0 10.73848927482241 21.824158978045983 60.75401927763536 1 0 0
8088 0 1 0 11.450233812903223 23.066691771046067 60.693196254395474 1 0 0
8050 0 1 0 2.913362660034303 25.46340464281408 60.46261942944175 1 0 0
7380 0 1 0 0.7703020207169619 26.69276187904263 60.25959825063285 1 0 0
7329 0 1 0 2.208018940467657 24.250383478479787 60.58605568469503 1 0 0
7378 0 1 0 0.7511937882342016 24.228872557016995 60.58554057630054 1 0 0
7321 0 1 0 2.161026820355546 26.688510268428832 60.33463374957973 1 0 0
8146 0 1 0 11.432663727172047 32.87811454599203 60.209595111357295 1 0 0
8059 0 1 0 4.384804283833173 25.52577284432959 60.46463082071512 1 0 0
8070 0 1 0 7.17919202346975 25.480002654983803 60.416763238878204 1 0 0
8061 0 1 0 6.485171354176743 26.696954498310795 60.44253205517075 1 0 0
8060 0 1 0 5.110212690994502 26.707977697985157 60.330691554136756 1 0 0
8069 0 1 0 6.463127934720654 24.251574126569555 60.54641165036307 1 0 0
8058 0 1 0 5.018353113768034 24.25704554354452 60.556139648436975 1 0 0
8079 0 1 0 8.6259573245079 25.484817836429812 60.607254192112194 1 0 0
8078 0 1 0 9.313611023659083 24.275778382990893 60.66273125699213 1 0 0
8090 0 1 0 11.45785071603528 25.516359356958397 60.61158968106568 1 0 0
8080 0 1 0 9.306117701692505 26.69676499099152 60.6887837463064 1 0 0
8081 0 1 0 10.715569382628464 26.76780624561727 60.696911428065754 1 0 0
8089 0 1 0 10.738579011747502 24.27189783545723 60.59398178861232 1 0 0
7434 0 1 0 0.7935611131852957 31.65470348712264 60.34203916883544 1 0 0
7383 0 1 0 2.1972025427935957 29.06387496106597 60.268309352430244 1 0 0
8102 0 1 0 2.944648253626762 27.872457363214252 60.257816571076525 1 0 0
7385 0 1 0 2.2344612062957436 31.602911009748766 60.31628279811143 1 0 0
8104 0 1 0 2.887832209851248 30.310113635353797 60.33646274339228 1 0 0
7432 0 1 0 0.7791625250203739 29.14925753535471 60.245825398498944 1 0 0
8111 0 1 0 4.368714272738169 27.905514384598177 60.3036028807605 1 0 0
8136 0 1 0 9.327551364584584 34.12400657288971 60.092126485512 1 0 0
8149 0 1 0 10.733634229835065 36.58376785079346 60.186465377675496 1 0 0
8113 0 1 0 4.318623816471683 30.36941492641447 60.25753948881148 1 0 0
8112 0 1 0 5.058154670275287 29.158080804517716 60.38978804934148 1 0 0
8122 0 1 0 7.218913268883899 27.894705339951138 60.435863011285996 1 0 0
8114 0 1 0 5.045216310800115 31.589042544843167 60.22851685529413 1 0 0
8123 0 1 0 6.525357910209088 29.155969791133828 60.35870260182572 1 0 0
8124 0 1 0 7.220139690831548 30.403737598779948 60.29311086013574 1 0 0
8125 0 1 0 6.519842733585227 31.650724201819976 60.1968246544971 1 0 0
8133 0 1 0 8.642428449931268 30.3965168924067 60.24485825155241 1 0 0
8131 0 1 0 8.64640845752817 27.917806135161293 60.519636277561254 1 0 0
8134 0 1 0 9.354162712279768 31.64270591352104 60.096427611101106 1 0 0
8143 0 1 0 10.775100721838276 29.176543367166875 60.4164460415241 1 0 0
8142 0 1 0 11.446688051719702 27.980967507747927 60.586311309857834 1 0 0
8144 0 1 0 11.492299836234126 30.382183239965673 60.25605094530377 1 0 0
8132 0 1 0 9.314460805486187 29.154710394651083 60.39993795953137 1 0 0
8145 0 1 0 10.762949504584167 31.624034012393743 60.177861045323404 1 0 0
7438 0 1 0 0.7378470073654742 36.560287052086906 60.38806157679451 1 0 0
8108 0 1 0 2.875051373008282 35.373567665467334 60.17288126457221 1 0 0
7436 0 1 0 0.7827102741251949 34.10617043962468 60.229523340806246 1 0 0
7387 0 1 0 2.2000488761177515 34.0842629971035 60.2129000797105 1 0 0
8106 0 1 0 2.939484383586018 32.85267840771023 60.178263554029776 1 0 0
7389 0 1 0 2.179345262799377 36.6014869669706 60.24882197808952 1 0 0
8148 0 1 0 11.456362733358324 35.34756477072155 60.22596543530395 1 0 0
8147 0 1 0 10.748646611617126 34.10470329222453 60.18422123631762 1 0 0
8135 0 1 0 8.635284222882708 32.8946710990355 60.11441743489551 1 0 0
8115 0 1 0 4.383610787272606 32.846128792291466 60.1256074646193 1 0 0
8117 0 1 0 4.3220994096889305 35.328814848956874 60.14924504111612 1 0 0
8116 0 1 0 5.057629351617311 34.10580204896998 60.13306640842509 1 0 0
8129 0 1 0 6.45399953527462 36.59072011417253 60.227779009725474 1 0 0
8118 0 1 0 5.001512932824586 36.576221788088276 60.151540335478785 1 0 0
8126 0 1 0 7.243906456998888 32.91907824676236 60.01333874033515 1 0 0
8127 0 1 0 6.491726173185662 34.09229746344218 60.089071359052 1 0 0
8128 0 1 0 7.118443786392764 35.34615062486916 60.12314882953692 1 0 0
8138 0 1 0 9.279138029315803 36.54041871637097 60.22610938285569 1 0 0
7433 0 1 0 0.05055798536875371 30.394860163510362 60.29563242436189 1 0 0
7435 0 1 0 0.07975392838600966 32.848202384645 60.34383824728826 1 0 0
7431 0 1 0 0.06255777624227085 27.92330798511757 60.20413648412578 1 0 0
7379 0 1 0 0.03560550204239417 25.480343049700544 60.38377796216542 1 0 0
7377 0 1 0 0.04543315677120001 23.06064187573186 60.79075023464345 1 0 0
7437 0 1 0 0.10380819210932404 35.328475665036414 60.31228966387692 1 0 0
7440 0 1 0 0.8005067131934124 39.008496971912194 60.56631790790047 1 0 0
7381 0 1 0 2.1995179308455586 39.047728532996366 60.530560890516675 1 0 0
8110 0 1 0 2.888321599987028 37.80893519106529 60.28850579670548 1 0 0
8162 0 1 0 2.8905681628187962 40.288714352374896 60.49119872643026 1 0 0
7443 0 1 0 2.1466933192260638 41.508016604481966 60.76372995884631 1 0 0
7492 0 1 0 0.7181366447399523 41.56118515906747 60.7856482271566 1 0 0
7552 0 1 0 0.6640125417360232 53.80352666061612 61.28843067954174 1 0 0
8233 0 1 0 4.242600875057336 55.05914712730877 61.23270004389425 1 0 0
8119 0 1 0 4.279680759820722 37.81225329022174 60.156942252546884 1 0 0
8171 0 1 0 4.305069414471323 40.3155491374334 60.33242420224028 1 0 0
8120 0 1 0 4.994330242928972 39.0527659217881 60.2811281388682 1 0 0
8130 0 1 0 7.186258421526469 37.80682622526587 60.40339593049437 1 0 0
8121 0 1 0 6.4577267053231235 39.08229804064167 60.41194283430376 1 0 0
8182 0 1 0 7.15607737650932 40.30659026377198 60.38643864115809 1 0 0
8183 0 1 0 6.440576190492268 41.5546849374796 60.460392801318456 1 0 0
8172 0 1 0 4.978500487346063 41.57508084600998 60.528175922090966 1 0 0
8139 0 1 0 8.603368921541318 37.78290234856303 60.32649102883788 1 0 0
8191 0 1 0 8.6205732209141 40.35857200661048 60.30656203756595 1 0 0
8150 0 1 0 11.444547434882018 37.80962734973635 60.167787551800366 1 0 0
8140 0 1 0 9.341098917393827 39.08720760665818 60.32972132398188 1 0 0
8141 0 1 0 10.751562236322725 39.111272235623495 60.175391376185594 1 0 0
8202 0 1 0 11.378291217000438 40.40131356227892 60.09720087589618 1 0 0
8203 0 1 0 10.728556800548295 41.65230745226512 60.123690212556504 1 0 0
8192 0 1 0 9.323572660758293 41.59447833948166 60.26419098803936 1 0 0
7445 0 1 0 2.200258178820936 43.96363822336275 60.919216764657996 1 0 0
8164 0 1 0 2.8968140253000056 42.700921718532356 60.76817527144717 1 0 0
7494 0 1 0 0.7805422866302325 44.04163878538949 60.89950046136641 1 0 0
8166 0 1 0 2.937667412714222 45.19615840465854 61.02135854428848 1 0 0
7503 0 1 0 2.0570942973879855 53.83958423054603 61.160885922295044 1 0 0
7439 0 1 0 0.04550614778240332 37.77358304442467 60.51314528379149 1 0 0
8173 0 1 0 4.2853803166141775 42.80021042509884 60.647770023970075 1 0 0
8175 0 1 0 4.346278028715575 45.2440418774616 60.837309413305064 1 0 0
8184 0 1 0 7.149594522735721 42.74795913268572 60.43898110011811 1 0 0
8186 0 1 0 7.147516558895938 45.264614266646724 60.4417287610309 1 0 0
8185 0 1 0 6.438821906457802 44.00995125441833 60.55188419706609 1 0 0
8174 0 1 0 5.00870530729089 44.05715766821011 60.645096535551104 1 0 0
8195 0 1 0 8.596353717600149 45.2531857251171 60.333786789306764 1 0 0
8193 0 1 0 8.563165515766288 42.81426319021952 60.22776085197744 1 0 0
8205 0 1 0 10.727142081258268 44.07517352277243 60.17081853217875 1 0 0
8204 0 1 0 11.477410469586232 42.8471365052522 60.09149643414743 1 0 0
8206 0 1 0 11.50646429610456 45.26882218667891 60.2117060760114 1 0 0
8194 0 1 0 9.321365930519084 44.026708750056386 60.19594024144981 1 0 0
7447 0 1 0 2.1761959320365034 46.43982909293352 60.94691393940108 1 0 0
7496 0 1 0 0.7368677176060124 46.46427938590548 60.85827700057579 1 0 0
8170 0 1 0 2.8464758005374353 50.16355785555683 60.84118488635797 1 0 0
8168 0 1 0 2.8787594978062696 47.641756135485686 60.836543636792456 1 0 0
7449 0 1 0 2.162584975885401 48.90833943851134 60.85794560935975 1 0 0
7498 0 1 0 0.739299512683711 48.92153082617543 60.92849191673142 1 0 0
8179 0 1 0 4.259581024119222 50.176980477015405 60.76322599686499 1 0 0
8177 0 1 0 4.35272423463217 47.68919283609995 60.72649666572026 1 0 0
8224 0 1 0 2.835524734868012 55.030657958036265 61.35460443066272 1 0 0
8188 0 1 0 7.1959330641585195 47.75382461288003 60.446696853483765 1 0 0
8187 0 1 0 6.462620255131611 46.490371962997145 60.54535900452894 1 0 0
8189 0 1 0 6.509969431024627 48.98756889017399 60.662583778403445 1 0 0
8176 0 1 0 5.082180502736361 46.46432267732516 60.678783022079756 1 0 0
8190 0 1 0 7.2250407826632514 50.2263739828825 60.7067134020239 1 0 0
8178 0 1 0 5.080817501902562 48.975079121775295 60.59649659033112 1 0 0
8199 0 1 0 8.613851324387863 50.19896640802174 60.607300538797936 1 0 0
8197 0 1 0 8.621962216795671 47.73294580372594 60.38581601028363 1 0 0
8198 0 1 0 9.316315160303548 48.95616841079186 60.50440916676977 1 0 0
8196 0 1 0 9.336804268051354 46.52974338270478 60.31100506223308 1 0 0
8207 0 1 0 10.754376064257967 46.48905370825572 60.30396561262079 1 0 0
8208 0 1 0 11.445375535328095 47.766454420514826 60.282033656758735 1 0 0
8209 0 1 0 10.703411869910079 48.95178169907203 60.42471759866498 1 0 0
8210 0 1 0 11.37537315759736 50.17763483934298 60.448745504288055 1 0 0
8263 0 1 0 10.676639367716737 53.923965187732676 60.66032151042588 1 0 0
7500 0 1 0 0.7053368537434769 51.319862224103154 61.019936291292765 1 0 0
8222 0 1 0 2.8187773842505868 52.61926035066406 61.04340951228324 1 0 0
7441 0 1 0 2.1225357074166262 51.36320683169639 60.92037979446004 1 0 0
8251 0 1 0 8.587159436846182 52.649618163062016 60.716951755486015 1 0 0
8243 0 1 0 6.417020268710694 53.89608279389059 60.80555997982317 1 0 0
8231 0 1 0 4.256188655342375 52.69923847870687 61.00638317186161 1 0 0
8181 0 1 0 6.47651939225735 51.445989615170404 60.88642057483763 1 0 0
8244 0 1 0 7.114936739633913 55.11837507702121 60.889745988110256 1 0 0
8242 0 1 0 7.150128111621104 52.689047787651724 60.771885339561386 1 0 0
8180 0 1 0 4.997226072352156 51.403301593599544 60.863211873789716 1 0 0
8232 0 1 0 4.978792184510839 53.91255685440092 61.07163670686437 1 0 0
8200 0 1 0 9.294018128195692 51.40801481609101 60.68881466165431 1 0 0
8253 0 1 0 8.560763002199257 55.15421720587275 60.7913227323584 1 0 0
8252 0 1 0 9.275820383118347 53.92741685617447 60.65089211774858 1 0 0
8262 0 1 0 11.369498835057614 52.6638043985149 60.5735927378728 1 0 0
8201 0 1 0 10.69734592091855 51.42657103768759 60.59424236337564 1 0 0
8264 0 1 0 11.436076116970709 55.1016596771447 60.923108276956754 1 0 0
7499 0 1 0 0.00015122416297043144 50.131114751771506 60.96773005331405 1 0 0
7493 0 1 0 0.05833174630462391 42.82570170676466 60.993970205033975 1 0 0
7495 0 1 0 0.02656319457459654 45.24304331862491 60.80771469537961 1 0 0
7497 0 1 0 0.018501073716250375 47.68862699412852 60.820206184302805 1 0 0
8211 0 1 0 12.79600346801181 40.33654153320083 59.86351578504028 1 0 0
7491 0 1 0 0.07710559947987607 40.243869236735975 60.710445562904326 1 0 0
8273 0 1 0 12.821369179323746 55.08926311421443 61.02916947005431 1 0 0
8271 0 1 0 12.778600111035031 52.66804835033471 60.670549005882336 1 0 0
8219 0 1 0 12.803260147205462 50.173914923642485 60.43311706936121 1 0 0
7551 0 1 0 0.0022877948190682673 52.56836296648203 61.134651184654615 1 0 0
7553 0 1 0 0.013372682167016592 55.066799702622575 61.47054154857927 1 0 0
8254 0 1 0 9.30291936626052 56.38320113552311 60.89651438917511 1 0 0
8265 0 1 0 10.715719392726463 56.32844102105771 60.938517262698255 1 0 0
8266 0 1 0 11.479410974294533 57.58972237886109 61.03294903147 1 0 0
8267 0 1 0 10.739874970533153 58.803476457737446 61.121337630540054 1 0 0
8268 0 1 0 11.433437986297344 60.04755744190737 60.97929434795294 1 0 0
8226 0 1 0 2.8716183992859765 57.49582526087546 61.670838361527 1 0 0
7505 0 1 0 2.148668679111453 56.2568650156312 61.48672465261925 1 0 0
7507 0 1 0 2.173239739202284 58.77279320466852 61.80684282122967 1 0 0
7554 0 1 0 0.7158561134684772 56.28350497465525 61.51048633602675 1 0 0
7556 0 1 0 0.7243553137106833 58.78409378351554 61.84388331718404 1 0 0
8228 0 1 0 2.8831089550644977 59.97246652926851 61.65649575935638 1 0 0
7617 0 1 0 0.04224680443084133 72.38296701099725 62.11060161107379 1 0 0
8317 0 1 0 8.534871721929344 72.37747396984679 61.82857230788744 1 0 0
8235 0 1 0 4.294122440278039 57.50867016332202 61.662296256515695 1 0 0
8246 0 1 0 7.125307666575962 57.60205871525365 61.14413467648247 1 0 0
8247 0 1 0 6.440403780237498 58.79048913032324 61.3455550762931 1 0 0
8245 0 1 0 6.419359349487991 56.32979558478739 61.12658198337143 1 0 0
8236 0 1 0 5.0605934853105685 58.731828307445944 61.62734724346907 1 0 0
8234 0 1 0 4.9877270767270385 56.32447713240577 61.30453574975222 1 0 0
8237 0 1 0 4.332008380301356 60.03441142007512 61.64531525284015 1 0 0
8248 0 1 0 7.15105272998664 60.029532687297674 61.29033939177475 1 0 0
8255 0 1 0 8.538399421747489 57.600027031946084 61.04509658561175 1 0 0
8256 0 1 0 9.290354526170518 58.82013894354519 61.11345357511145 1 0 0
8257 0 1 0 8.565596623161863 60.04566386987228 61.17094025899129 1 0 0
7509 0 1 0 2.1481226928476937 61.22587329509348 61.71412372813136 1 0 0
7560 0 1 0 0.699474024641516 63.7244946170197 61.93335474050519 1 0 0
8230 0 1 0 2.8694368010481415 62.45108877609846 61.709521960768605 1 0 0
7558 0 1 0 0.7435266046054738 61.252676425299434 61.83024689112196 1 0 0
7501 0 1 0 2.1343695185784384 63.702070917001315 61.75958630003278 1 0 0
8239 0 1 0 4.275449724613986 62.468922802576174 61.502980495632464 1 0 0
8249 0 1 0 6.44364517907739 61.269153045166014 61.2638059598391 1 0 0
8238 0 1 0 5.000119251226201 61.252618055436486 61.40813317535177 1 0 0
8250 0 1 0 7.15702792152056 62.492426177626 61.21553749642559 1 0 0
8240 0 1 0 5.050829120141756 63.69231522826961 61.51233426066178 1 0 0
8241 0 1 0 6.456158896423646 63.73296111660006 61.41689339876985 1 0 0
8258 0 1 0 9.260675593764086 61.271645865672696 61.03222334524906 1 0 0
8270 0 1 0 11.420329675425638 62.51059207393615 61.03518268736619 1 0 0
8269 0 1 0 10.671881840514098 61.28452218998489 61.006739345792106 1 0 0
8259 0 1 0 8.545295725921093 62.48547933072804 61.19849281644151 1 0 0
8261 0 1 0 10.717027011591993 63.7563065568895 61.143750494461806 1 0 0
8260 0 1 0 9.259536162485016 63.75168164255885 61.14395664837843 1 0 0
8315 0 1 0 8.58669571403239 69.91905018903323 61.74606513023959 1 0 0
7563 0 1 0 2.1549835781038347 66.21227866483997 61.84556000277863 1 0 0
8284 0 1 0 2.8643310615633877 67.41165134382865 61.79373597909769 1 0 0
7565 0 1 0 2.1162242168158434 68.68286646177393 61.822626626940156 1 0 0
7614 0 1 0 0.7305091254518571 68.6394702371118 61.94432247271414 1 0 0
8282 0 1 0 2.85725035271575 64.9280735398153 61.66593642621761 1 0 0
7612 0 1 0 0.740449981458524 66.17333947641787 61.93677738474491 1 0 0
8293 0 1 0 4.3176885854071 67.41545943474492 61.67286529640637 1 0 0
8291 0 1 0 4.311263328941821 64.94617785958474 61.555611954169414 1 0 0
8316 0 1 0 9.275506104263775 71.1687185193778 61.815912993163025 1 0 0
8294 0 1 0 5.018452248245112 68.64243936337192 61.60182383838705 1 0 0
8305 0 1 0 6.483927673959738 68.63696440440773 61.54743039656555 1 0 0
8292 0 1 0 5.03491815940017 66.17615373048936 61.61144678310005 1 0 0
8302 0 1 0 7.161688053391361 64.97726872804841 61.4655560859404 1 0 0
8304 0 1 0 7.185816214707683 67.43647947234317 61.56094777001153 1 0 0
8303 0 1 0 6.477129459577616 66.2222744189499 61.52961800832302 1 0 0
8314 0 1 0 9.287320390251894 68.70207553619699 61.65039737012267 1 0 0
8312 0 1 0 9.312119520194857 66.23851185673865 61.298939623716805 1 0 0
8322 0 1 0 11.459313270279317 64.99690798574521 61.243046225532915 1 0 0
8323 0 1 0 10.740421310595577 66.22971280485638 61.300600064919976 1 0 0
8324 0 1 0 11.399984450216214 67.45906687308268 61.510082162618644 1 0 0
8325 0 1 0 10.729645365953418 68.73758332043593 61.60758049711991 1 0 0
8311 0 1 0 8.572319766224814 64.98754944003703 61.28388632639116 1 0 0
8313 0 1 0 8.602778174682662 67.49447123003215 61.47475495276863 1 0 0
7569 0 1 0 2.1847910483397794 73.62441007799372 61.97662659703847 1 0 0
8288 0 1 0 2.859175631376351 72.35992943086693 61.96472987708033 1 0 0
7567 0 1 0 2.1066716625535133 71.17341622612524 61.82880039148122 1 0 0
7618 0 1 0 0.7698098323039798 73.60399516846763 62.09592749119736 1 0 0
8286 0 1 0 2.8392203080300615 69.89870033300944 61.796386371215135 1 0 0
7616 0 1 0 0.7053847950378485 71.1419499396644 61.95034129029219 1 0 0
8328 0 1 0 11.456737656074644 72.38429618414419 61.770835794856005 1 0 0
8295 0 1 0 4.261937633309195 69.85792990897231 61.66959425512516 1 0 0
8297 0 1 0 4.321080524146623 72.3642461450652 61.891204927925926 1 0 0
8309 0 1 0 6.417306725052242 73.57773798169669 61.88381474931406 1 0 0
8298 0 1 0 5.012289967166935 73.60082169940033 61.9321216408211 1 0 0
8306 0 1 0 7.156427578612723 69.90134457040465 61.66772466027627 1 0 0
8296 0 1 0 4.991132588518192 71.11120861815564 61.76607863196217 1 0 0
8308 0 1 0 7.105802150921823 72.33570604221481 61.79056665000207 1 0 0
8307 0 1 0 6.428039736910798 71.1049644171742 61.70112026720801 1 0 0
8327 0 1 0 10.721966714280882 71.20222942376719 61.83139617866946 1 0 0
8326 0 1 0 11.438530861428449 69.92033848472639 61.72980299440053 1 0 0
8329 0 1 0 10.707329533454557 73.58098531999882 61.76711177679606 1 0 0
8318 0 1 0 9.272025306786453 73.55749672925694 61.91974717826014 1 0 0
7613 0 1 0 0.03529822857573404 67.42976656323137 61.99330386720668 1 0 0
8335 0 1 0 12.82578806973919 69.92760251269654 61.790568709674346 1 0 0
7615 0 1 0 0.022149702183696718 69.8768777133812 61.958501412348696 1 0 0
7611 0 1 0 0.026902725670993277 64.95979879641638 62.05550219938654 1 0 0
8290 0 1 0 2.9191679211897332 74.86046711702954 62.04395302314694 1 0 0
7620 0 1 0 0.7559606921170373 76.02598288230098 62.21042958571292 1 0 0
7561 0 1 0 2.1921285579107628 76.08033765137296 62.13391821983828 1 0 0
8342 0 1 0 2.940758642942016 77.32262814908988 62.15573298150199 1 0 0
7672 0 1 0 0.7796424830607529 78.58315897793076 62.14137157265486 1 0 0
7623 0 1 0 2.1870662644097663 78.55800414364447 62.15684686614364 1 0 0
8381 0 1 0 10.77429364681174 88.48012368651054 62.33725899780072 1 0 0
8444 0 1 0 11.494080493227056 92.17006510507537 62.20577996670184 1 0 0
8299 0 1 0 4.3333064313777765 74.86758865088908 62.02736446241763 1 0 0
8300 0 1 0 5.048122871798707 76.04246487687583 62.14548416001635 1 0 0
8351 0 1 0 4.340147364582036 77.31863651117735 62.17149374245138 1 0 0
8310 0 1 0 7.166987810005821 74.81732812274353 62.03463075727353 1 0 0
8301 0 1 0 6.460446656831972 76.04414944321195 62.07208282522623 1 0 0
8362 0 1 0 7.1183545904723395 77.32343196223405 61.990877194902325 1 0 0
8363 0 1 0 6.401020894061866 78.5869830179243 62.03789830433458 1 0 0
8352 0 1 0 5.025872363050629 78.58389261134775 62.13227039585564 1 0 0
8371 0 1 0 8.501215391508573 77.3222623438726 62.14106998125916 1 0 0
8319 0 1 0 8.580363630166294 74.82626464399911 62.02772804478651 1 0 0
8321 0 1 0 10.647483350657868 76.10088635725987 61.98881785982562 1 0 0
8330 0 1 0 11.368566667622394 74.86518799309353 61.89995636280501 1 0 0
8320 0 1 0 9.247417902917164 76.0618975471596 62.09696851641806 1 0 0
8382 0 1 0 11.390733357141519 77.37188789073778 62.03499616392659 1 0 0
8383 0 1 0 10.675026340201063 78.5722594778893 62.13128851824191 1 0 0
8372 0 1 0 9.224793201427 78.6200565267745 62.09798779930397 1 0 0
7674 0 1 0 0.7562794477127238 81.03933757550362 62.23857091651502 1 0 0
8346 0 1 0 2.9260837068952923 82.27634956182776 62.2445963130498 1 0 0
7625 0 1 0 2.191973867772314 81.06656086400909 62.147622188016555 1 0 0
8344 0 1 0 2.8824886677466885 79.80922154515889 62.074912245595314 1 0 0
8353 0 1 0 4.263661777878047 79.8436634604092 62.1718669641358 1 0 0
8354 0 1 0 4.987084974179724 81.06861925333374 62.132832492037 1 0 0
8355 0 1 0 4.333191834381499 82.2929910476558 62.237592282291615 1 0 0
8364 0 1 0 7.084193614279118 79.82044656088644 62.08409723701911 1 0 0
8365 0 1 0 6.38398408976263 81.07810519769126 62.161386845126415 1 0 0
8366 0 1 0 7.126862368123798 82.30492713212308 62.32918883830182 1 0 0
8373 0 1 0 8.500208965934528 79.88240853270572 62.108604577692276 1 0 0
8375 0 1 0 8.592243464969291 82.3455614735911 62.393440644766684 1 0 0
8385 0 1 0 10.717136019632418 81.04773824264703 62.245138777883874 1 0 0
8386 0 1 0 11.460309925816118 82.29403491425253 62.43307276297409 1 0 0
8374 0 1 0 9.276072212613242 81.13104186593219 62.23178795527973 1 0 0
8384 0 1 0 11.429979161855096 79.79698373341414 62.091972595095456 1 0 0
7678 0 1 0 0.764585269396992 86.02554553454385 62.115878603399906 1 0 0
7676 0 1 0 0.766092620353755 83.45488337257815 62.187163066265555 1 0 0
8348 0 1 0 2.8403081345898493 84.73565310389479 62.300127924101126 1 0 0
7629 0 1 0 2.1672660875199568 85.99194137220793 62.31391926027076 1 0 0
7627 0 1 0 2.1783132671631744 83.50659623686354 62.311742819098995 1 0 0
8350 0 1 0 2.8407651634966022 87.22944487365683 62.21782606029637 1 0 0
8359 0 1 0 4.278618565119233 87.23877529526722 62.31414069654763 1 0 0
8380 0 1 0 9.34432878514733 88.44485460578026 62.3689919001118 1 0 0
8443 0 1 0 10.737230985673152 90.91766376879843 62.17882001811803 1 0 0
8357 0 1 0 4.268706670837503 84.7177406743294 62.411992447972416 1 0 0
8368 0 1 0 7.176693342803617 84.74713573703322 62.438659115552255 1 0 0