LAMMPS data file via write_data, version 4 Feb 2025, timestep = 80000, units = metal

11640 atoms
3 atom types

0 153.776988 xlo xhi
0 147.97197569494978 ylo yhi
0 151.07316997686289 zlo zhi

Masses

1 12.01099999691024
2 1.007999999740698
3 15.99899999588435

Atoms # full

3876 0 1 0 7.474805255820484 0.9665815988192531 30.444027033730624 1 0 1
4113 0 1 0 8.13287191024853 2.198439579100604 30.43114329379361 1 0 1
4137 0 1 0 8.225675546188027 16.96608837503305 31.707288112910625 1 0 1
3904 0 1 0 7.553408621181361 18.188462261771434 31.92167451689829 1 0 1
3903 0 1 0 6.133528330675082 18.188620710429547 32.004746053815154 1 0 1
3874 0 1 0 5.33244060729543 2.2280610995006707 30.587003246757494 1 0 1
3873 0 1 0 3.8861553208045074 2.219371740192244 30.653420094830466 1 0 1
3640 0 1 0 3.1614819215316206 3.471805937944723 30.589005078612285 1 0 1
3636 0 1 0 3.169641557227097 0.9644833580644313 30.59245746131789 1 0 1
3635 0 1 0 1.7483670233731077 0.958151015568312 30.644623099204942 1 0 1
3639 0 1 0 1.73793843455327 3.4583828641795913 30.64553966558883 1 0 1
3879 0 1 0 6.029686444434198 3.4565199095893147 30.54254233798122 1 0 1
3875 0 1 0 6.052264827120359 0.9795641105633943 30.493502497646187 1 0 1
3880 0 1 0 7.453501199871363 3.4210156583685167 30.503366081958 1 0 1
3647 0 1 0 1.7261987499295428 8.446139408349833 30.904276936662157 1 0 1
3648 0 1 0 3.187103222260013 8.4101176838489 30.919576765752456 1 0 1
3878 0 1 0 5.296563206695008 4.682876290744467 30.62226623475172 1 0 1
3882 0 1 0 5.279025959367537 7.1585168824507175 30.763015020528155 1 0 1
3881 0 1 0 3.907350610175638 7.157697720576996 30.819474622249842 1 0 1
3877 0 1 0 3.8797029179629536 4.727992913236077 30.549140170733867 1 0 1
3644 0 1 0 3.1667360135274056 5.941429681937395 30.64822019544968 1 0 1
3643 0 1 0 1.7407586567038107 5.929077671658341 30.771853891701394 1 0 1
3883 0 1 0 5.989866470049452 5.891022767578117 30.719256957057784 1 0 1
3887 0 1 0 6.069050950294612 8.380068378588874 30.847955841051213 1 0 1
4121 0 1 0 8.154277915868075 7.135396613942064 30.666759636866807 1 0 1
3884 0 1 0 7.423881129079678 5.925791586921839 30.63099711799559 1 0 1
4117 0 1 0 8.173495066753048 4.728106779984797 30.504811332018814 1 0 1
3888 0 1 0 7.457079000196454 8.33126805934893 30.76328135414191 1 0 1
4122 0 1 0 9.563056027380053 7.177960377125408 30.43194048160886 1 0 1
4118 0 1 0 9.561112938529057 4.726094426953183 30.221705926306846 1 0 1
3634 0 1 0 1.0263684032759004 2.181731433409925 30.768453326147768 1 0 1
3642 0 1 0 1.047645503902163 7.166050842514014 30.933992617944284 1 0 1
3651 0 1 0 1.8076390670724187 10.841424396387227 31.152552474821032 1 0 1
3656 0 1 0 3.2448842197344465 13.261587057870386 31.401294899621252 1 0 1
3890 0 1 0 5.392230517169233 12.010492514231014 31.299336639329304 1 0 1
3886 0 1 0 5.381679845733028 9.59472769036659 31.029861857913858 1 0 1
3889 0 1 0 3.952329570356217 12.029398978706567 31.249845409377528 1 0 1
3885 0 1 0 3.954127579627693 9.605664193566646 31.0176487238969 1 0 1
3652 0 1 0 3.207806762907501 10.791067730804862 31.17806724146171 1 0 1
3655 0 1 0 1.7858343822649523 13.279630530490838 31.417874556288805 1 0 1
3650 0 1 0 1.1027247850168604 12.042850826491936 31.353542164600647 1 0 1
3891 0 1 0 6.080451036006313 10.798547076886923 31.091648387559648 1 0 1
3895 0 1 0 6.123795150107248 13.25746528775114 31.42867469056443 1 0 1
3892 0 1 0 7.518616175096738 10.829784410674554 30.942618620282573 1 0 1
4129 0 1 0 8.22372412050492 12.051591132794833 31.13717540308217 1 0 1
4125 0 1 0 8.190762135752486 9.58429508650594 30.785164547851743 1 0 1
3646 0 1 0 1.0294101938610447 9.643274798095424 31.126610183441024 1 0 1
3638 0 1 0 1.0475166250845451 4.661259220359351 30.85003292928011 1 0 1
4126 0 1 0 9.594000778598366 9.5803367479793 30.63455863279312 1 0 1
3896 0 1 0 7.528406946787058 13.278728217465991 31.324404336147158 1 0 1
3654 0 1 0 1.072889862996023 14.541626773897216 31.64440909297 1 0 1
3659 0 1 0 1.8016226562234192 15.748706392554231 31.89227805549126 1 0 1
3663 0 1 0 1.8436962252373383 18.182598304100583 32.45912842428934 1 0 1
3660 0 1 0 3.211616121637755 15.738469214930966 31.82168141941254 1 0 1
3898 0 1 0 5.418873417091271 16.943978191465558 31.920493741094162 1 0 1
3894 0 1 0 5.39820400146331 14.454404806903518 31.60567162845077 1 0 1
3897 0 1 0 3.9903255116833187 16.926213597875606 31.977562975038154 1 0 1
3893 0 1 0 3.9568653552093487 14.535577682222058 31.546179492158508 1 0 1
3664 0 1 0 3.2896804372954627 18.16992300861098 32.32200619783501 1 0 1
3658 0 1 0 1.136684558042036 16.917618051472466 32.24633387102537 1 0 1
3900 0 1 0 7.541094776422507 15.714958458314392 31.629382764042283 1 0 1
4133 0 1 0 8.211449260315852 14.502942683218775 31.433921575720817 1 0 1
3899 0 1 0 6.117306929317098 15.713278600984722 31.67759320806775 1 0 1
4134 0 1 0 9.609468340014313 14.520383465284072 31.324147251656303 1 0 1
3906 0 1 0 5.369771234556523 21.89418133136257 32.54850309829989 1 0 1
3902 0 1 0 5.374508485360106 19.40529862352619 32.20315588995606 1 0 1
3905 0 1 0 3.989339704951003 21.902771022183273 32.63483636859913 1 0 1
3901 0 1 0 3.996849855572111 19.376312547533768 32.393475900910516 1 0 1
3668 0 1 0 3.2969119971782868 20.62523227600548 32.5937471571452 1 0 1
3667 0 1 0 1.8912560917532628 20.60841133835201 32.68150594095494 1 0 1
3662 0 1 0 1.172549007189307 19.375979768668465 32.548510056290944 1 0 1
3666 0 1 0 1.2185583162270424 21.84639126600771 32.650507328062126 1 0 1
3907 0 1 0 6.0669840769263965 20.658805812736624 32.29793238103786 1 0 1
4145 0 1 0 8.211510620841118 21.845138242906714 32.26642917957696 1 0 1
3908 0 1 0 7.522244030558593 20.620695229515754 32.16762407521817 1 0 1
4141 0 1 0 8.270971536449029 19.449591901763903 32.074685290697076 1 0 1
3930 0 1 0 5.506633515700339 36.667286532537375 33.24309150619995 1 0 1
4169 0 1 0 8.325197092822643 36.69336253645659 33.49468554021707 1 0 1
3690 0 1 0 1.2011272823188177 36.690524202609645 32.87495705824233 1 0 1
3910 0 1 0 5.448584768168454 24.31011202621703 32.70554949868855 1 0 1
3914 0 1 0 5.445060392659041 26.82266405971468 32.786450471673426 1 0 1
3909 0 1 0 4.0447716133772245 24.388725963993107 32.747233182120645 1 0 1
3913 0 1 0 4.048891108887347 26.800523591252876 32.834302438953415 1 0 1
3672 0 1 0 3.302396664473356 23.11851665436888 32.75904548475172 1 0 1
3676 0 1 0 3.304490860586659 25.601026964372288 32.8644305374483 1 0 1
3675 0 1 0 1.8748990576401838 25.626079117287134 32.84820026136523 1 0 1
3671 0 1 0 1.8627590219815617 23.10855196186365 32.68281589404025 1 0 1
3670 0 1 0 1.1430327089211234 24.345894831300917 32.72545944879516 1 0 1
3915 0 1 0 6.165103626670935 25.55932117062523 32.757546042634594 1 0 1
3911 0 1 0 6.138404804178329 23.14118504599546 32.61513923870772 1 0 1
3916 0 1 0 7.561162737957329 25.536707566486353 32.67773374407805 1 0 1
3912 0 1 0 7.5543650210759 23.0938795740062 32.487280219087424 1 0 1
4149 0 1 0 8.304795970713444 24.303140366736674 32.6300867968668 1 0 1
4153 0 1 0 8.304617142878454 26.77337402665957 32.74073403305741 1 0 1
3931 0 1 0 6.200077586718598 35.44300262858727 33.2456978744619 1 0 1
3929 0 1 0 4.058713902164387 36.693182457003836 33.15834859852591 1 0 1
3932 0 1 0 7.623380961842576 35.43243598213952 33.29206494286519 1 0 1
3928 0 1 0 7.550820767323286 33.01988736938733 33.19522072130437 1 0 1
3679 0 1 0 1.953593455039071 28.07746412765941 32.884629935098275 1 0 1
3683 0 1 0 1.861545121115838 30.526793093348626 33.12181853593229 1 0 1
3684 0 1 0 3.279498818359431 30.534934910371234 33.167662265628195 1 0 1
3918 0 1 0 5.500968239129984 29.312653019755224 32.96694728529744 1 0 1
3917 0 1 0 4.035790072535156 29.279632976192392 33.02923226229712 1 0 1
3922 0 1 0 5.4461388958275565 31.771292735396443 33.134765236551516 1 0 1
3921 0 1 0 4.016210591278528 31.768413659336066 33.13366359359865 1 0 1
3680 0 1 0 3.333806828076564 28.072959442001707 32.89776048984119 1 0 1
3682 0 1 0 1.1660808978759245 31.767394297648796 33.159349011072166 1 0 1
3923 0 1 0 6.179878635994606 30.571210454667913 33.092891204125 1 0 1
3919 0 1 0 6.172440996766512 28.045381501155365 32.89565539735637 1 0 1
3924 0 1 0 7.554499383184867 30.57888666783011 33.03621692552872 1 0 1
4157 0 1 0 8.290596421990333 29.312768515018796 32.92995793128826 1 0 1
3920 0 1 0 7.565396223828394 28.032638610761918 32.79666190363084 1 0 1
3674 0 1 0 1.1929200685001173 26.847823690736526 32.86868527971414 1 0 1
3927 0 1 0 6.148093143553761 33.01642326860126 33.095166633565896 1 0 1
3678 0 1 0 1.1928661374582614 29.29219901653297 32.99630232894485 1 0 1
4161 0 1 0 8.30267053393579 31.78298883343543 33.13511414187486 1 0 1
4165 0 1 0 8.341420904513322 34.214013322418225 33.25218190951395 1 0 1
3687 0 1 0 1.8353543381825184 33.03967228490421 33.14439256930633 1 0 1
3691 0 1 0 1.901025586147749 35.459808933081256 32.924236538751465 1 0 1
3692 0 1 0 3.302341007350509 35.4668202772891 33.07490087270038 1 0 1
3688 0 1 0 3.2655343273699575 33.010756007050546 33.140113786834014 1 0 1
3926 0 1 0 5.435925936384923 34.21981035694452 33.157953669943204 1 0 1
3925 0 1 0 4.019649914697866 34.227357814053136 33.05148854389808 1 0 1
3686 0 1 0 1.1579580783717045 34.25626979294038 32.97929356722851 1 0 1
3934 0 1 0 5.4894328776898 39.15555408551634 33.296819741490715 1 0 1
3933 0 1 0 4.055805785344972 39.15458480033932 33.242997969378614 1 0 1
3696 0 1 0 3.325162292981739 37.94552650294216 33.111681449091606 1 0 1
3700 0 1 0 3.3490784740674284 40.37127495973897 33.22190571258798 1 0 1
3699 0 1 0 1.9527012607179735 40.3854077600035 33.13523444856989 1 0 1
3695 0 1 0 1.9227644633841938 37.92614424875426 32.97718570893614 1 0 1
3694 0 1 0 1.1926193664968825 39.14323654396475 32.98953208843678 1 0 1
3935 0 1 0 6.189661543134076 37.89707241161706 33.306097934143196 1 0 1
3939 0 1 0 6.239743513015834 40.383852502883926 33.36068054826329 1 0 1
3936 0 1 0 7.602718767369427 37.891251313649725 33.47392297931533 1 0 1
3940 0 1 0 7.654620453303073 40.38206002223615 33.3328051244087 1 0 1
4173 0 1 0 8.347724468482753 39.14698740427711 33.3780688997348 1 0 1
3963 0 1 0 6.324198594670412 55.173759291079485 33.7362764337605 1 0 1
4193 0 1 0 8.455080443332532 51.410703776201025 33.67347714034392 1 0 1
4197 0 1 0 8.458509202722013 53.94958113092392 33.79377887229089 1 0 1
3938 0 1 0 5.5035147131565285 41.61990061462942 33.40527117992473 1 0 1
3937 0 1 0 4.0973188445118 41.592318026725906 33.30651057322588 1 0 1
3942 0 1 0 5.532106898137158 44.08619384671103 33.389789928758695 1 0 1
3941 0 1 0 4.123074827073317 44.141739926759115 33.28721504287467 1 0 1
3708 0 1 0 3.398456396965143 45.37042460569702 33.18344827600232 1 0 1
3704 0 1 0 3.3887351273220334 42.87543430941926 33.3030710708958 1 0 1
3703 0 1 0 1.9792396246212165 42.88924087635934 33.03806426451489 1 0 1
3707 0 1 0 1.886648056334395 45.34515239565534 33.070853319903755 1 0 1
3702 0 1 0 1.21492446772717 44.10741624470678 33.02249386541852 1 0 1
3698 0 1 0 1.2683908669729822 41.66529920442111 33.07566446541036 1 0 1
3943 0 1 0 6.176697893745388 42.8627362149582 33.40264370544209 1 0 1
4177 0 1 0 8.396791516449431 41.64626645883925 33.328846084075515 1 0 1
3944 0 1 0 7.654499507862617 42.84758493994254 33.40973505919031 1 0 1
3960 0 1 0 7.789408396173026 52.71235641299428 33.61780611158171 1 0 1
3718 0 1 0 1.308045897464974 54.010925175168815 33.34032070714436 1 0 1
3947 0 1 0 6.254542428403055 45.308157752768786 33.39637744997583 1 0 1
4181 0 1 0 8.38363286630774 44.02541309875031 33.37396175999147 1 0 1
3948 0 1 0 7.689995450730438 45.28894227354804 33.37327613960058 1 0 1
3714 0 1 0 1.2999932652430959 51.51865755459183 33.17639630784613 1 0 1
3964 0 1 0 7.733311383878709 55.2145091380548 33.82748061348078 1 0 1
3716 0 1 0 3.4396076407994185 50.295878156605575 33.38595348099897 1 0 1
3712 0 1 0 3.3625952345056747 47.78779941346001 33.21555542814016 1 0 1
3946 0 1 0 5.5633006099713285 46.555710386499044 33.32510954336087 1 0 1
3950 0 1 0 5.537666659112863 49.01001444061853 33.49326633331505 1 0 1
3945 0 1 0 4.119328033292747 46.56502750693872 33.16488496370839 1 0 1
3949 0 1 0 4.095256619082467 49.04469541949696 33.37950309067929 1 0 1
3715 0 1 0 1.9869814410533189 50.27800702468673 33.23250753589878 1 0 1
3711 0 1 0 1.9305481212890854 47.83318239225302 33.16527186071355 1 0 1
3710 0 1 0 1.2640486507351967 49.07994274671988 33.21721394541163 1 0 1
3706 0 1 0 1.209646600688696 46.59628157522335 33.08692700854068 1 0 1
3951 0 1 0 6.295097547159375 47.79534624778939 33.4453802120492 1 0 1
3955 0 1 0 6.307683045645092 50.250836550624946 33.661258248968004 1 0 1
3952 0 1 0 7.696885419271019 47.7678302892555 33.4966526618349 1 0 1
4185 0 1 0 8.389287376131477 46.54552911093224 33.46058740182547 1 0 1
3959 0 1 0 6.3681678916464035 52.70158178662495 33.573412458393754 1 0 1
3724 0 1 0 3.4681646042559255 55.16617727631447 33.63255822771254 1 0 1
4189 0 1 0 8.422577259801463 48.99381478943747 33.57841063338797 1 0 1
3953 0 1 0 4.162530384906063 51.49264927293693 33.49102937928897 1 0 1
3956 0 1 0 7.7116885630992815 50.23239643796624 33.67033150840467 1 0 1
3957 0 1 0 4.1658005991076195 53.936247356968856 33.59401958779411 1 0 1
3723 0 1 0 2.050668621762252 55.24174499422204 33.46040525584182 1 0 1
3719 0 1 0 1.991597124870898 52.7403251727544 33.37349594529781 1 0 1
3720 0 1 0 3.3571586822434702 52.7337257302767 33.51734594121639 1 0 1
3958 0 1 0 5.646351884474052 53.938878396581124 33.53597402875697 1 0 1
3954 0 1 0 5.6059935377120595 51.4996166084891 33.587498619349184 1 0 1
3962 0 1 0 5.638859372975364 56.40730310261026 33.9377848306308 1 0 1
3966 0 1 0 5.611528712636005 58.855559911493664 34.157231298407034 1 0 1
3965 0 1 0 4.2122617130728575 58.87572125697249 33.9593867061918 1 0 1
3961 0 1 0 4.181242773943712 56.45418311691523 33.779027030070814 1 0 1
3728 0 1 0 3.4341866032683233 57.67039228616829 33.72917191776729 1 0 1
3727 0 1 0 2.0138277846750086 57.684960416581674 33.477557193936356 1 0 1
3726 0 1 0 1.336237804739295 58.92473217517809 33.469491016327645 1 0 1
3722 0 1 0 1.3082295020200572 56.45730048031213 33.360296156318014 1 0 1
3967 0 1 0 6.323650048062462 57.63240090678169 34.08765855191632 1 0 1
4201 0 1 0 8.479826623767666 56.419756884584764 33.948972207990955 1 0 1
3968 0 1 0 7.786996786708087 57.62308208264321 34.06638056843146 1 0 1
4205 0 1 0 8.44383877168803 58.86997567954765 34.21691176965564 1 0 1
3750 0 1 0 1.3212137859749633 73.75111824426388 33.833359893121724 1 0 1
4229 0 1 0 8.397532787407899 73.6817707104463 34.65601873257714 1 0 1
3988 0 1 0 7.715786582029903 69.98691170796937 34.52144831788797 1 0 1
3735 0 1 0 2.108863343330743 62.623325403186065 33.66240563228352 1 0 1
3736 0 1 0 3.5246493628584115 62.562693321212244 33.784485393395585 1 0 1
3970 0 1 0 5.651225763522886 61.33417807402759 34.215688313221 1 0 1
3974 0 1 0 5.626952100449362 63.78376119003073 34.20562020053276 1 0 1
3973 0 1 0 4.204679116924447 63.82191512902845 34.01709573194468 1 0 1
3969 0 1 0 4.242715528834763 61.340210378233984 33.97665164695665 1 0 1
3732 0 1 0 3.462665962319114 60.13657963189648 33.94266208156754 1 0 1
3731 0 1 0 2.0620065692298044 60.13275438558972 33.73790139164783 1 0 1
3734 0 1 0 1.3596899424062419 63.81632582532502 33.60637154742306 1 0 1
3730 0 1 0 1.3314713776616374 61.37134335176337 33.624612346717605 1 0 1
3975 0 1 0 6.350500025580378 62.58764860966864 34.27418376628799 1 0 1
3971 0 1 0 6.33959426735694 60.076967021602044 34.22292430509757 1 0 1
4209 0 1 0 8.498389869840635 61.32338671606021 34.49012369975249 1 0 1
3976 0 1 0 7.797863848153996 62.55474701871364 34.49301502158128 1 0 1
3972 0 1 0 7.747623323487325 60.09787210821117 34.35931180177752 1 0 1
3991 0 1 0 6.295889228413875 72.49589652540782 34.38811156579434 1 0 1
3747 0 1 0 2.0867083501337444 70.06332629006201 33.643316879519446 1 0 1
3990 0 1 0 5.563922704913645 73.7195437101503 34.386537676136385 1 0 1
4213 0 1 0 8.489028990316744 63.82914677764033 34.581174093549535 1 0 1
3987 0 1 0 6.29961427192968 70.00863472106391 34.357950737035594 1 0 1
3739 0 1 0 2.049231851407397 65.05366925307759 33.79038044295139 1 0 1
3743 0 1 0 2.0126192459545034 67.5836373534479 33.83908411059936 1 0 1
3744 0 1 0 3.4239777205640376 67.54710805138694 34.03876336364044 1 0 1
3978 0 1 0 5.602450919418899 66.27508040767198 34.252460177396344 1 0 1
3977 0 1 0 4.1636494463721645 66.3211435494249 34.08042929118511 1 0 1
3982 0 1 0 5.566783307860084 68.77580405321662 34.280118362050466 1 0 1
3981 0 1 0 4.138298509023982 68.78129773084228 34.08735817327034 1 0 1
3740 0 1 0 3.436192276551131 65.07209644402676 33.99179812324357 1 0 1
3738 0 1 0 1.3255546696924476 66.30313227313077 33.729658530360346 1 0 1
3742 0 1 0 1.3735769451609545 68.83919345205521 33.55675716427025 1 0 1
3979 0 1 0 6.312071477341846 65.03213127170548 34.2661577838838 1 0 1
3983 0 1 0 6.231761807409201 67.52800518730632 34.34996921873206 1 0 1
3984 0 1 0 7.707229042075972 67.56478228243917 34.50431949474446 1 0 1
3980 0 1 0 7.738580958523891 65.01881374169689 34.47467298422593 1 0 1
4217 0 1 0 8.417178064208363 66.32824666602323 34.53763623131395 1 0 1
3746 0 1 0 1.3310089753293544 71.29767270442656 33.49205097148478 1 0 1
4225 0 1 0 8.42217183678613 71.28426744234639 34.60169162559948 1 0 1
3992 0 1 0 7.716090955572116 72.48760943736656 34.47352576986444 1 0 1
3989 0 1 0 4.155679015403441 73.756982380272 34.28059445821706 1 0 1
4221 0 1 0 8.45698663481645 68.7538949576948 34.51018474539217 1 0 1
3752 0 1 0 3.455767709349235 72.51729228255802 34.06752167126068 1 0 1
3748 0 1 0 3.4580607285285287 70.01448407474882 33.857134223803094 1 0 1
3986 0 1 0 5.615646082702896 71.2469917738739 34.28103600699794 1 0 1
3985 0 1 0 4.15841918041661 71.22920001204034 34.02756632092783 1 0 1
3751 0 1 0 2.032170672947857 72.51689034450305 33.73285132771061 1 0 1
3994 0 1 0 5.542641621767856 76.16835497088488 34.41459103467483 1 0 1
3993 0 1 0 4.117331656367894 76.19734092385686 34.28818834021801 1 0 1
3760 0 1 0 3.4200912587896757 77.36199974496003 34.28683850875297 1 0 1
3756 0 1 0 3.409718175093628 74.9831971931861 34.22601280957884 1 0 1
3759 0 1 0 2.0038251554943343 77.42459076801535 34.200246918068125 1 0 1
3755 0 1 0 2.0090541616458117 74.97710654955239 34.07732669199008 1 0 1
3754 0 1 0 1.3022001122701854 76.21779936328753 34.03035904794383 1 0 1
3995 0 1 0 6.292639551002656 74.97885372766427 34.4905994690244 1 0 1
3999 0 1 0 6.243777683182418 77.44302391887847 34.46988105302292 1 0 1
3996 0 1 0 7.695355928943983 74.94922064393982 34.602637245231826 1 0 1
4000 0 1 0 7.696096054685051 77.40868006543415 34.59278662402361 1 0 1
4233 0 1 0 8.391867209635464 76.15482013053335 34.690858939393706 1 0 1
4024 0 1 0 7.643806027170212 92.26583919116156 34.3331855958777 1 0 1
4253 0 1 0 8.360228273549343 88.5571675066727 34.409200114423214 1 0 1
3783 0 1 0 1.9070053374665352 92.27588101348799 34.55348897161228 1 0 1
3763 0 1 0 1.9581845781968554 79.88708058439775 34.190590198430144 1 0 1
3998 0 1 0 5.537935582430748 78.67269668597453 34.33111230503901 1 0 1
4002 0 1 0 5.549283819443777 81.08590420774895 34.37881399864874 1 0 1
4001 0 1 0 4.079620224031023 81.0671775282397 34.31833522095789 1 0 1
3997 0 1 0 4.102405327350151 78.61667719084309 34.24408068657788 1 0 1
3768 0 1 0 3.3404818136959222 82.32164461874017 34.35182919554645 1 0 1
3764 0 1 0 3.3993839590942416 79.82696575350306 34.23550729999901 1 0 1
3767 0 1 0 1.9323655939819284 82.36009627297234 34.379816849895555 1 0 1
3758 0 1 0 1.2343956594209842 78.6787374329261 34.09736269876816 1 0 1
3762 0 1 0 1.2304292329206117 81.14358784308953 34.399952919293604 1 0 1
4003 0 1 0 6.266712130095374 79.88184487715999 34.47982758847382 1 0 1
4007 0 1 0 6.21627419331446 82.37639509055707 34.551634469381554 1 0 1
4004 0 1 0 7.701416866424604 79.90110778661936 34.62564265502419 1 0 1
4008 0 1 0 7.685358586725082 82.42354361757722 34.71481189971258 1 0 1
4237 0 1 0 8.40313902812688 78.68105205842426 34.50797854426364 1 0 1
4241 0 1 0 8.396654363652361 81.16760801933935 34.79571439940501 1 0 1
4019 0 1 0 6.224887941629408 89.7850793001919 34.526245955945356 1 0 1
3784 0 1 0 3.363367939173789 92.24836414637022 34.56620362446212 1 0 1
4013 0 1 0 4.06274940969601 88.49361379184313 34.63329761550776 1 0 1
4023 0 1 0 6.237281408365451 92.30794592455963 34.392375886219206 1 0 1
3775 0 1 0 1.898148062451794 87.29523889186447 34.694257710729566 1 0 1
3771 0 1 0 1.9254649067570822 84.83297810630705 34.67769296076743 1 0 1
3776 0 1 0 3.35866327007231 87.28410416490797 34.72748614102915 1 0 1
3772 0 1 0 3.3297879717389276 84.7899948775265 34.52410409505014 1 0 1
4006 0 1 0 5.464908277606155 83.5909521894944 34.52803497651786 1 0 1
4010 0 1 0 5.472942738676055 86.0224209430073 34.64182990898924 1 0 1
4005 0 1 0 4.047811387423501 83.56071256701681 34.43648515979124 1 0 1
4009 0 1 0 4.070337065822684 86.05485915412055 34.66827247014659 1 0 1
3766 0 1 0 1.2045246978918485 83.58701362789756 34.59279081369303 1 0 1
3770 0 1 0 1.2020510768644022 86.04178276556353 34.73112589963928 1 0 1
4011 0 1 0 6.214411954436677 84.79523582171356 34.59519499302432 1 0 1
4015 0 1 0 6.191126574821798 87.30586718983038 34.64974692345591 1 0 1
4012 0 1 0 7.646480589281472 84.844670713692 34.609846227121736 1 0 1
4249 0 1 0 8.335090539263135 86.12099656206746 34.51882382214125 1 0 1
4245 0 1 0 8.400596145296166 83.64873862550101 34.65665795356849 1 0 1
3778 0 1 0 1.2245120632294235 91.02015267562577 34.60641813426554 1 0 1
3774 0 1 0 1.2069686841411833 88.53568242003625 34.65398163775053 1 0 1
4020 0 1 0 7.66725726597787 89.7994117709531 34.40148635976023 1 0 1
4016 0 1 0 7.621871461792309 87.33052446674495 34.48426069537705 1 0 1
4257 0 1 0 8.353136375332735 91.02097030759731 34.28558965399583 1 0 1
3779 0 1 0 1.9169220835411451 89.80965507027948 34.61847806214972 1 0 1
3780 0 1 0 3.3261079103150117 89.78420679707268 34.54061839246347 1 0 1
4018 0 1 0 5.505273726847854 91.05109162797785 34.452555373561026 1 0 1
4014 0 1 0 5.491157623501654 88.5160002072372 34.59892340795538 1 0 1
4017 0 1 0 4.071410572003257 91.00219793192868 34.54442067718694 1 0 1
4026 0 1 0 5.492685187867202 95.94155788987793 34.023750066121565 1 0 1
4022 0 1 0 5.544129051999315 93.51721937246226 34.263461412753706 1 0 1
4025 0 1 0 4.093342342524717 95.95488628489183 34.179001581826704 1 0 1
3788 0 1 0 3.3406502158852684 94.7420334200776 34.36943582068045 1 0 1
4021 0 1 0 4.0935875963258574 93.47435439751959 34.38928151712086 1 0 1
3787 0 1 0 1.9392213780428829 94.79131821964779 34.43451195396345 1 0 1
3786 0 1 0 1.2348912131757972 95.98839360119312 34.28015101583457 1 0 1
3782 0 1 0 1.2266795180793808 93.53657132446108 34.530525377173525 1 0 1
4027 0 1 0 6.202153719057833 94.74530351769361 34.07618349812105 1 0 1
4028 0 1 0 7.656103425911733 94.69375762813544 33.9596992310803 1 0 1
4265 0 1 0 8.355783947343475 95.94907142537033 33.7453479898422 1 0 1
4289 0 1 0 8.196286389318873 110.6260039039848 31.737163235154743 1 0 1
4285 0 1 0 8.208523285953657 108.16490817484475 32.13520689883771 1 0 1
4261 0 1 0 8.329092060087952 93.47400185227916 34.081595359574756 1 0 1
4048 0 1 0 7.540042979464129 106.9292896658821 32.35845172601036 1 0 1
3792 0 1 0 3.3578911036944965 97.18057281809563 34.07586097935536 1 0 1
4030 0 1 0 5.535561669623863 98.42602594838186 33.94552150105605 1 0 1
4034 0 1 0 5.497614233827472 100.94589230714726 33.69133619130086 1 0 1
4029 0 1 0 4.092422778846544 98.4398829209051 34.03376733160057 1 0 1
4033 0 1 0 4.060249519692149 100.92058621372918 33.811904709864 1 0 1
3796 0 1 0 3.3700396219755313 99.68017617380112 33.92346069210197 1 0 1
3795 0 1 0 1.8952404343986136 99.72208667508349 34.055759435538974 1 0 1
3791 0 1 0 1.9330846965318875 97.20436800592599 34.14547491269805 1 0 1
3790 0 1 0 1.1840206442727925 98.46907788986728 34.16978111831874 1 0 1
3794 0 1 0 1.1588042827967822 100.94390807971565 33.973152967551236 1 0 1
4031 0 1 0 6.21241328214857 97.18820007863923 34.0258731985625 1 0 1
4035 0 1 0 6.259084910380532 99.64138981791692 33.71711892953026 1 0 1
4269 0 1 0 8.34621696776319 98.38632006268446 33.621559847881265 1 0 1
4032 0 1 0 7.623548268479288 97.1403513762186 33.735314241792494 1 0 1
4036 0 1 0 7.673172748156704 99.66212284666963 33.513532141641974 1 0 1
4273 0 1 0 8.368098926336422 100.8920045049883 33.283296197863244 1 0 1
3811 0 1 0 1.787105719363794 109.42469906807723 32.31089608461051 1 0 1
4051 0 1 0 6.118512731548846 109.41216069858827 32.182227697443835 1 0 1
3806 0 1 0 1.078100290595996 108.20251322049562 32.5357897085181 1 0 1
4047 0 1 0 6.137524699948267 106.975260259817 32.6299617695286 1 0 1
3804 0 1 0 3.3046715253126564 104.56353278333182 33.25119595562936 1 0 1
4038 0 1 0 5.482701725287673 103.39113075596194 33.35145102703817 1 0 1
4037 0 1 0 4.052874017247759 103.39794129658712 33.51862813158246 1 0 1
4042 0 1 0 5.422111188361823 105.8215344390708 32.99333465169904 1 0 1
4041 0 1 0 4.006508625968892 105.7457019207311 33.03916435595904 1 0 1
3800 0 1 0 3.326798483847165 102.15525342018334 33.72263683461951 1 0 1
3803 0 1 0 1.860969870639801 104.54181704605622 33.38811570298474 1 0 1
3799 0 1 0 1.9030003943394087 102.10828780863636 33.79230540889117 1 0 1
3802 0 1 0 1.1529050042005313 105.79237515083102 33.07334100171739 1 0 1
3798 0 1 0 1.1748790135245226 103.26915355048926 33.58252684934672 1 0 1
4039 0 1 0 6.244433953786593 102.16077015815726 33.47214556201361 1 0 1
4043 0 1 0 6.156072976084652 104.58706333983751 33.06653697742353 1 0 1
4040 0 1 0 7.640761004147973 102.12568773293142 33.27926799869358 1 0 1
4277 0 1 0 8.308918861652709 103.33247826057733 32.941175924545554 1 0 1
4044 0 1 0 7.547349120144946 104.5463839966369 32.811331507101315 1 0 1
3807 0 1 0 1.8771105537544213 106.9721420601461 32.79549790924152 1 0 1
3810 0 1 0 1.0095525085324804 110.61321567563064 32.084593268493926 1 0 1
4052 0 1 0 7.531164639112751 109.39219235733047 32.02008907617954 1 0 1
4281 0 1 0 8.265950937503858 105.73167460343167 32.50544429780198 1 0 1
4049 0 1 0 3.937715610538275 110.61596911984597 32.213640758977206 1 0 1
4050 0 1 0 5.3840664597390235 110.65333317021835 32.10077453386656 1 0 1
3808 0 1 0 3.2788847011612257 106.9837023783965 32.83861073854997 1 0 1
3812 0 1 0 3.190828679512635 109.41800378911519 32.329801289821916 1 0 1
4046 0 1 0 5.421655278039654 108.21894749504504 32.460334611839606 1 0 1
4045 0 1 0 3.9896711882535403 108.20397194124484 32.50069081947147 1 0 1
4290 0 1 0 9.593558350940956 110.61727256152622 31.76123485727584 1 0 1
3814 0 1 0 1.044829441752686 113.08410290011518 31.714509129185533 1 0 1
3603 0 1 0 1.7059477438167616 129.18221076929572 30.383109343658198 1 -1 1
3604 0 1 0 3.1659928603965977 129.16593452028968 30.349821456084463 1 -1 1
4078 0 1 0 5.20520868489973 127.92288540783817 30.43502445296877 1 0 1
3826 0 1 0 1.0296866572757155 120.4745030213684 30.856160805583066 1 0 1
4318 0 1 0 9.520124311549695 127.92565224033748 30.19548021991988 1 0 1
4314 0 1 0 9.500948776876951 125.46565569526992 30.059504884113114 1 0 1
4313 0 1 0 8.061618323177475 125.38048323179856 30.149710502561266 1 0 1
4317 0 1 0 8.119226153183165 127.8744119536497 30.305006184426862 1 0 1
4080 0 1 0 7.36910654561746 126.62786853366735 30.37089761692773 1 0 1
3844 0 1 0 7.382602447890512 129.13592536201833 30.441711659316297 1 -1 1
4079 0 1 0 5.953630935525324 126.69800004886466 30.402619919734175 1 0 1
3843 0 1 0 5.972853964693867 129.14722206956563 30.445014069760887 1 -1 1
3820 0 1 0 3.1886453937660812 114.35342559962857 31.43320362878643 1 0 1
3815 0 1 0 1.7597696404699599 111.83611209349482 31.911304303116676 1 0 1
4054 0 1 0 5.33715962837428 113.11771776166171 31.753005152300688 1 0 1
3819 0 1 0 1.7398416033347885 114.33865848302723 31.49726322478848 1 0 1
4053 0 1 0 3.9084920408199966 113.13065868922418 31.72659527428323 1 0 1
3816 0 1 0 3.15796642518645 111.91225670994925 31.964397021145203 1 0 1
4055 0 1 0 6.115043646396394 111.89480114354048 31.886288958783027 1 0 1
4059 0 1 0 6.035824778659166 114.35499800344319 31.411028527230616 1 0 1
4056 0 1 0 7.505167450963824 111.8636757997726 31.70874580965385 1 0 1
4293 0 1 0 8.162400366302542 113.08856571757555 31.39564257598625 1 0 1
4060 0 1 0 7.492353584732147 114.31522550928787 31.326403099936503 1 0 1
3839 0 1 0 1.6430145523291984 126.66014996996873 30.446644245696483 1 0 1
3830 0 1 0 0.922233962221711 122.93581476572466 30.805567518273453 1 0 1
3838 0 1 0 0.9853137550217015 127.9333285830438 30.399698861013462 1 0 1
3828 0 1 0 3.1570939931705753 119.18596572583634 30.788323786631487 1 0 1
4062 0 1 0 5.293476056132765 117.94988907554477 30.86145351983281 1 0 1
4058 0 1 0 5.278371776047846 115.55972332349265 31.233272227761713 1 0 1
4057 0 1 0 3.873401853767151 115.5290699751338 31.098097570659714 1 0 1
4061 0 1 0 3.8731807334780988 117.97515742693264 30.869618010758934 1 0 1
3824 0 1 0 3.1300164288674543 116.76536321256134 31.01044312100379 1 0 1
3827 0 1 0 1.73902860145975 119.20577849269141 30.895010057360988 1 0 1
3823 0 1 0 1.7039935428491264 116.8157688134071 31.140107729403702 1 0 1
4063 0 1 0 6.031578713780198 116.76707515085627 31.046011705075323 1 0 1
4067 0 1 0 6.013694242937584 119.16001804218105 30.746819873363755 1 0 1
4297 0 1 0 8.115707676766037 115.56900636924682 31.052621750854282 1 0 1
4064 0 1 0 7.43598066396495 116.80431626153917 30.908666381564696 1 0 1
4301 0 1 0 8.17085996110603 118.0230605945149 30.7292995837228 1 0 1
4068 0 1 0 7.438468961262275 119.17801067651249 30.676048437705592 1 0 1
3840 0 1 0 3.109095957829874 126.67158225904878 30.512172238855474 1 0 1
4302 0 1 0 9.609084564148517 117.95748598374723 30.709721086153127 1 0 1
3834 0 1 0 0.9170619806753144 125.40272208329208 30.56967478467852 1 0 1
3822 0 1 0 1.0039462134475976 117.99995822228688 31.042962814943028 1 0 1
4070 0 1 0 5.274284081358556 122.97803947694739 30.486239046750164 1 0 1
4066 0 1 0 5.327707756759611 120.41095164307148 30.694730220958213 1 0 1
4065 0 1 0 3.890402753396023 120.46455349423994 30.797238566314824 1 0 1