LAMMPS (4 Feb 2025)
OMP_NUM_THREADS environment is not set. Defaulting to 1 thread. (src/comm.cpp:99)
  using 1 OpenMP thread(s) per MPI task
# LAMMPS script for running NVT simulation

units       metal
dimension   3
boundary    p p p
atom_style  full
atom_modify map yes

newton      on

read_data   ../equi_final.lammps-data
Reading data file ...
  orthogonal box = (0 0 0) to (154.008 148.2 151.07609)
  16 by 8 by 12 MPI processor grid
  reading atoms ...
  22680 atoms
  reading velocities ...
  22680 velocities
Finding 1-2 1-3 1-4 neighbors ...
  special bond factors lj:    0        0        0       
  special bond factors coul:  0        0        0       
     0 = max # of 1-2 neighbors
     0 = max # of 1-3 neighbors
     0 = max # of 1-4 neighbors
     1 = max # of special neighbors
  special bonds CPU = 5.342 seconds
  read_data CPU = 5.765 seconds

pair_style  symmetrix/mace
pair_coeff  * * ../../../../00-common/models/ch2o-dens-inv_swa-1-6-8.json C H O
Loading MACE model from '../../../../00-common/models/ch2o-dens-inv_swa-1-6-8.json' ... success
  mapping LAMMPS type 1 (C) to MACE type 1
  mapping LAMMPS type 2 (H) to MACE type 0
  mapping LAMMPS type 3 (O) to MACE type 2

variable t equal step

group graphene type 1
8640 atoms in group graphene
group H2O type 2 3
14040 atoms in group H2O

thermo 1000

######### NVT production for 80 ps #############

dump DUMP1 all atom 100 nvt_prod.lammpstrj
timestep 0.001
fix NVT1 graphene nvt temp 300 300 0.1
fix NVT2 H2O nvt temp 300 300 0.1
run 80000
Neighbor list info ...
  update: every = 1 steps, delay = 0 steps, check = yes
  max neighbors/atom: 2000, page size: 100000
  master list distance cutoff = 8
  ghost atom cutoff = 8
  binsize = 4, bins = 39 38 38
  1 neighbor lists, perpetual/occasional/extra = 1 0 0
  (1) pair symmetrix/mace, perpetual
      attributes: full, newton on
      pair build: full/bin
      stencil: full/bin/3d
      bin: standard
Per MPI rank memory allocation (min/avg/max) = 5.965 | 6.253 | 8.316 Mbytes
   Step          Temp          E_pair         E_mol          TotEng         Press     
         0   300.97476     -3538224.2      0             -3537341.9     -53.566142    
      1000   299.66762     -3538211.8      0             -3537333.3     -49.791335    
      2000   299.70753     -3538210.1      0             -3537331.5     -16.426276    
      3000   301.21713     -3538218.2      0             -3537335.1     -15.321565    
      4000   299.37104     -3538219.3      0             -3537341.7     -5.6300871    
      5000   298.74904     -3538213.5      0             -3537337.7     -59.673842    
      6000   298.43235     -3538211.8      0             -3537337       -75.538359    
      7000   299.853       -3538219.3      0             -3537340.3      41.636801    
      8000   299.58013     -3538227.9      0             -3537349.7     -16.808847    
      9000   300.77954     -3538218.2      0             -3537336.4     -15.552521    
     10000   298.01809     -3538222.7      0             -3537349       -20.613746    
     11000   300.5561      -3538209.6      0             -3537328.5     -54.314495    
     12000   298.87869     -3538217.2      0             -3537341.1     -41.808463    
     13000   301.80911     -3538224.7      0             -3537340       -53.867468    
     14000   298.04323     -3538220.1      0             -3537346.4     -67.655447    
     15000   301.13693     -3538221.6      0             -3537338.8     -76.2518      
     16000   298.37288     -3538222.2      0             -3537347.5     -84.597561    
     17000   298.3821      -3538212.2      0             -3537337.5     -47.62321     
     18000   298.43625     -3538220.6      0             -3537345.7     -52.054039    
     19000   297.84775     -3538218.9      0             -3537345.8     -84.897434    
     20000   301.65362     -3538212.9      0             -3537328.6     -98.363776    
     21000   298.71514     -3538226        0             -3537350.3     -47.076341    
     22000   299.16691     -3538222.3      0             -3537345.3     -1.9508091    
     23000   301.66954     -3538215.5      0             -3537331.2     -10.102503    
     24000   299.35332     -3538218        0             -3537340.4     -0.016796039  
     25000   299.4206      -3538209.6      0             -3537331.8     -61.682284    
     26000   300.2516      -3538215.2      0             -3537335        8.6349493    
     27000   297.32522     -3538213.6      0             -3537341.9     -3.4016434    
     28000   298.90495     -3538218.6      0             -3537342.4     -68.892074    
     29000   299.63649     -3538208.8      0             -3537330.4     -40.686137    
     30000   300.10094     -3538221.3      0             -3537341.6     -38.359339    
     31000   299.23906     -3538219.4      0             -3537342.2     -50.16391     
     32000   300.07412     -3538208.1      0             -3537328.4     -61.380307    
     33000   298.00555     -3538223.9      0             -3537350.3     -49.441694    
     34000   294.8859      -3538216.4      0             -3537351.9     -16.115409    
     35000   297.36764     -3538216.6      0             -3537344.9     -60.586998    
     36000   300.69119     -3538227.4      0             -3537345.9     -19.438338    
     37000   300.08773     -3538219.1      0             -3537339.4     -82.668517    
     38000   299.52765     -3538238        0             -3537359.9     -46.973407    
     39000   302.22689     -3538224.6      0             -3537338.6     -67.078736    
     40000   300.69609     -3538222.5      0             -3537341.1     -50.545603    
     41000   301.11356     -3538232.5      0             -3537349.8     -68.736348    
     42000   300.56059     -3538218.9      0             -3537337.8     -33.789022    
     43000   299.74239     -3538219.7      0             -3537341       -86.78545     
     44000   301.10088     -3538201.4      0             -3537318.7     -82.222014    
     45000   299.3988      -3538221.1      0             -3537343.5     -81.360865    
     46000   300.94957     -3538214.5      0             -3537332.2     -22.198987    
     47000   299.84251     -3538213.8      0             -3537334.8     -35.954082    
     48000   301.29576     -3538217.3      0             -3537334.1     -22.092937    
     49000   300.48196     -3538208.4      0             -3537327.5     -8.2712292    
     50000   304.07419     -3538211        0             -3537319.7      3.0825782    
     51000   297.24008     -3538214.4      0             -3537343.1     -32.858259    
     52000   301.18503     -3538224.3      0             -3537341.3     -19.761005    
     53000   299.20515     -3538215.3      0             -3537338.2      0.25736482   
     54000   297.72921     -3538214.1      0             -3537341.3      10.357434    
     55000   301.87675     -3538218.9      0             -3537333.9     -54.120361    
     56000   300.15926     -3538224.7      0             -3537344.8     -66.124141    
     57000   301.8308      -3538222        0             -3537337.2     -25.311175    
     58000   300.15341     -3538225.4      0             -3537345.5     -7.2442327    
     59000   298.6099      -3538210.1      0             -3537334.7     -60.720726    
     60000   301.38763     -3538210.2      0             -3537326.6     -7.3217468    
     61000   298.49586     -3538217        0             -3537341.9     -42.695345    
     62000   300.61417     -3538226.1      0             -3537344.9     -24.712127    
     63000   301.85902     -3538211.5      0             -3537326.6     -25.708572    
     64000   301.69103     -3538215.1      0             -3537330.7     -18.685067    
     65000   297.54852     -3538213.9      0             -3537341.6     -37.534812    
     66000   303.5221      -3538225.9      0             -3537336.1     -40.597935    
     67000   298.35728     -3538210.3      0             -3537335.7     -39.21707     
     68000   301.14578     -3538215.6      0             -3537332.8     -18.455853    
     69000   299.46776     -3538207.5      0             -3537329.6     -37.834412    
     70000   300.1843      -3538207.8      0             -3537327.8     -68.87497     
     71000   299.61838     -3538226.4      0             -3537348       -47.290622    
     72000   301.583       -3538214.1      0             -3537330       -59.825628    
     73000   298.04665     -3538220.1      0             -3537346.4     -62.267005    
     74000   303.52673     -3538208.7      0             -3537318.9     -57.897937    
     75000   298.77011     -3538188.7      0             -3537312.9     -48.648151    
     76000   300.07065     -3538217.3      0             -3537337.7     -48.559139    
     77000   299.10403     -3538207        0             -3537330.2     -62.27971     
     78000   301.11523     -3538211.6      0             -3537328.9     -35.354344    
     79000   298.78207     -3538224.7      0             -3537348.8     -52.300373    
     80000   301.54999     -3538224        0             -3537340       -42.099471    
Loop time of 78392.9 on 1536 procs for 80000 steps with 22680 atoms

Performance: 0.088 ns/day, 272.198 hours/ns, 1.021 timesteps/s, 23.145 katom-step/s
100.0% CPU use with 1536 MPI tasks x 1 OpenMP threads

MPI task timing breakdown:
Section |  min time  |  avg time  |  max time  |%varavg| %total
---------------------------------------------------------------
Pair    | 0.42489    | 10701      | 76102      |20332.2 | 13.65
Bond    | 0.0051356  | 0.011973   | 0.10347    |  11.4 |  0.00
Neigh   | 0.05431    | 0.51776    | 8.7733     | 188.4 |  0.00
Comm    | 1.7341     | 3392.9     | 36379      |12217.4 |  4.33
Output  | 11.352     | 18.751     | 26.352     | 106.2 |  0.02
Modify  | 454.18     | 64266      | 78358      |10436.8 | 81.98
Other   |            | 13.78      |            |       |  0.02

Nlocal:        14.7656 ave         247 max           0 min
Histogram: 1333 14 59 57 9 7 6 3 34 14
Nghost:        145.241 ave        2155 max           0 min
Histogram: 1202 167 46 36 32 15 7 6 20 5
Neighs:              0 ave           0 max           0 min
Histogram: 1536 0 0 0 0 0 0 0 0 0
FullNghs:       2264.1 ave       49984 max           0 min
Histogram: 1378 71 16 9 9 3 3 8 23 16

Total # of neighbors = 3477654
Ave neighs/atom = 153.33571
Ave special neighs/atom = 0
Neighbor list builds = 4238
Dangerous builds = 0

write_restart nvt_prod.restart.*
System init for write_restart ...
write_data nvt_prod_final.lammps-data
System init for write_data ...

Total wall time: 21:47:11
