LAMMPS data file via write_data, version 4 Feb 2025, timestep = 100000, units = metal

3510 atoms
2 atom types

0 38.501999999999995 xlo xhi
0 37.05 ylo yhi
0 75 zlo zhi

Masses

1 1.007999999740698
2 15.99899999588435

Atoms # full

2664 0 1 0 2.448257847804701 1.7292475746843403 1.6361123334020646 1 0 0
2662 0 2 0 2.7197667647163546 0.9694753321012234 2.230201199477269 1 0 0
1516 0 2 0 0.6513213657137117 4.921370894430699 1.7590924490674 0 0 0
2465 0 1 0 1.6315663228847666 0.5107767069916881 3.268611884127886 1 0 0
2602 0 2 0 4.480846773968733 9.097113960915042 4.729760950932819 1 0 0
1518 0 1 0 1.094392742909219 5.679861265377148 2.1473879775723197 0 0 0
138 0 1 0 2.6805300082318713 8.278186795501512 0.10316497204435815 0 0 0
2663 0 1 0 3.2945430888752854 1.3873790534985544 2.935416182333405 1 0 0
669 0 1 0 2.944413680453443 3.7204701907067226 0.351731915427513 0 0 0
753 0 1 0 3.9893480719410834 5.697799381136579 2.4662763256522706 0 0 0
2464 0 2 0 0.7315044803487476 0.4260627647438431 3.7512594183298402 1 0 0
667 0 2 0 2.3125929629028055 3.1056302325088496 0.7751886487193105 0 0 0
668 0 1 0 1.584071924383773 3.68546511552884 1.1570960668423431 0 0 0
2466 0 1 0 0.9587990292882951 0.7283538375553578 4.695929358756432 1 0 0
355 0 2 0 4.499081152111262 2.5466641539771655 4.106417436097657 0 0 0
357 0 1 0 3.897285804954015 2.9354797788497713 4.7904401566936965 0 0 0
99 0 1 0 2.382696661681508 6.589363456405959 3.857639025288333 0 0 0
97 0 2 0 2.6468157989818755 6.6855076953204495 2.9521780598497904 0 0 0
98 0 1 0 2.340570093739875 7.599344222191842 2.6529607392299126 0 0 0
136 0 2 0 2.3510081766619066 8.82221005447357 0.883935502781812 0 0 0
137 0 1 0 1.4271346834495182 9.147679721225222 0.6108918260079914 0 0 0
285 0 1 0 0.49205249671500806 5.784063850154722 5.854775710938345 0 0 0
283 0 2 0 1.4702895735517125 5.710442454416653 5.83370730652671 0 0 0
2603 0 1 0 4.738191209565251 9.043931561478834 3.8021415721521747 1 0 0
2387 0 1 0 4.671291573498877 6.947819559504237 5.754346803097111 1 0 0
2 0 1 0 0.49290399475568447 1.7851120968648364 6.482515942491715 0 0 0
1 0 2 0 1.2645020504325284 1.2540818099408377 6.270828836340742 0 0 0
3307 0 2 0 0.5587106936697835 4.706438573717433 12.362298076709155 1 1 0
320 0 1 0 4.0661113901061015 2.3813985984251334 7.403659538785578 0 0 0
321 0 1 0 3.2002460521236684 3.7351424170507466 7.176240485609903 0 0 0
2727 0 1 0 2.2677240414153315 4.712670692884027 11.316157468362833 1 0 0
88 0 2 0 3.64761659521519 1.5305087263286925 10.800487699703 0 0 0
2726 0 1 0 3.0665460696032225 3.4023440746243563 11.017034168526065 1 0 0
798 0 1 0 3.5016859283015465 8.16335492487853 11.842472508067766 0 1 0
2725 0 2 0 3.0950760406870166 4.383827247238432 10.889365431450903 1 0 0
797 0 1 0 2.124025651136167 8.721849448007415 12.424240844144116 0 1 0
319 0 2 0 3.3548665886392652 2.8300763815804353 6.830209219468185 0 0 0
89 0 1 0 3.9254437342390847 1.4974995979354735 9.833198143220038 0 0 0
3 0 1 0 2.0394272961339337 1.9116302338641558 6.492596246777294 0 0 0
2527 0 2 0 3.5199918991311816 8.50165370486467 7.356538732797211 1 0 0
2528 0 1 0 3.406710403612183 8.505367436879805 6.384337314672701 1 0 0
796 0 2 0 2.529676153677249 8.005653188658014 11.899511814807138 0 1 0
3318 0 1 0 0.2017713787568982 4.543738716256177 8.622722539452944 1 1 0
348 0 1 0 3.4169947124038798 6.310965748937831 8.25387805331401 0 0 0
347 0 1 0 3.0073056559527305 5.208727194921335 9.332214121647803 0 0 0
2593 0 2 0 0.130945678327663 7.504411510507796 9.009812364115932 1 0 0
346 0 2 0 2.9550183658466707 5.4819984533924035 8.396964183025844 0 0 0
2594 0 1 0 1.0444555375412805 7.303346913686178 8.837571864793551 1 0 0
90 0 1 0 4.570771384468704 1.3956294314420254 11.209608228350652 0 0 0
284 0 1 0 1.7583957033171784 5.537236953068702 6.770626421601506 0 0 0
2529 0 1 0 4.133820998799382 9.20113960400372 7.523892163825434 1 0 0
2525 0 1 0 1.9635907667581671 9.163037853918823 10.096030380233604 1 0 0
2267 0 1 0 2.1769218266761428 0.06895803509012666 8.67415103535676 1 1 0
27 0 1 0 1.893448809048654 1.9890346225467639 14.11391489928864 0 0 0
840 0 1 0 1.1593991937674901 1.3035070817413024 16.540781221697337 0 1 0
25 0 2 0 2.2048868108490107 2.1460269878921525 13.163179649269905 0 0 0
1566 0 1 0 3.7836602356139672 7.542146480690123 17.215708182862297 1 0 0
3308 0 1 0 0.7125958985431744 4.087498568582346 13.14265427479619 1 1 0
839 0 1 0 2.2901232059097603 2.3176497325612644 16.899435216334577 0 1 0
838 0 2 0 1.619034584750839 2.1291601950122394 16.192587151450834 0 1 0
3343 0 2 0 3.1542995094145536 6.4236852427123 14.386660904287659 1 1 0
266 0 1 0 3.5110497503019955 3.1516442343238134 13.94522176591868 0 0 0
3345 0 1 0 2.6945292828031184 6.817765288895157 13.573140915275898 1 1 0
2536 0 2 0 0.06812114421865338 4.449391311793427 17.24446215127277 1 0 0
267 0 1 0 3.608854061109124 4.645756970066735 14.394366351004006 0 0 0
341 0 1 0 4.094061040165611 3.1311827064848967 16.2154858784969 0 0 0
265 0 2 0 3.9917380016342507 3.753563895330527 14.526579734689927 0 0 0
2538 0 1 0 0.46503789765471826 3.6204485452974757 16.76468382960849 1 0 0
2940 0 1 0 4.1177155371856475 8.065241390628518 14.403923057721864 1 0 0
3344 0 1 0 2.3778769880219386 6.357459626644598 14.968928290003403 1 1 0
3159 0 1 0 0.16736551906800365 7.401130172161597 16.317527505296717 1 1 0
2938 0 2 0 4.589776172316247 8.839274898978445 14.71431349688095 1 0 0
3158 0 1 0 0.5227970294458798 5.813361836194259 16.300950031834553 1 1 0
1564 0 2 0 3.8370741123016447 7.3069107479561115 18.245954419695664 1 0 0
340 0 2 0 4.291238813633693 2.7469064395286584 17.095106697883793 0 0 0
3157 0 2 0 0.6849156138700024 6.699263242056419 15.83974779350426 1 1 0
3309 0 1 0 0.18404149982639414 5.524680154903811 12.72856209727893 1 1 0
1565 0 1 0 4.242824598599894 8.122375089173591 18.611254011601957 1 0 0
26 0 1 0 2.1569012192440224 1.2858558368566835 12.74932449696224 0 0 0
2939 0 1 0 4.40186934292765 9.094318242473483 15.664333153540609 1 0 0
289 0 2 0 2.221613461646967 1.3803039949152744 73.42061157090428 0 0 -1
268 0 2 0 2.35887618795899 3.4047371485456916 71.21107011369463 0 0 -1
269 0 1 0 2.3196307519575563 2.8418337574048813 72.08254538537027 0 0 -1
291 0 1 0 3.156531671189275 0.9750028643173808 73.45474967636933 0 0 -1
290 0 1 0 2.042047421395403 1.792066660066498 74.28444324149187 0 0 -1
270 0 1 0 1.4940848430726918 3.82283496032591 71.1633368702886 0 0 -1
570 0 1 0 4.029311512137559 4.151593544582033 71.40568557853459 0 0 -1
2513 0 1 0 4.738470101336673 4.149787263649626 73.50749671896955 1 0 -1
539 0 1 0 3.778865474672108 7.610060925083769 71.53534773817003 0 0 -1
2743 0 2 0 0.7863488142300006 6.0927818663104425 71.45768224431703 1 0 -1
2744 0 1 0 0.5612219871140784 6.608844428612433 70.69747563294979 1 0 -1
540 0 1 0 2.235783121367636 7.198197807587037 71.6410997979922 0 0 -1
538 0 2 0 2.855799878330165 7.884330700830975 71.32933815734722 0 0 -1
353 0 1 0 0.9200004772608461 0.5492043713394759 72.82695823458131 0 0 -1
352 0 2 0 0.4901705080256301 0.2240931151271582 71.96445735134905 0 0 -1
2512 0 2 0 4.770397853441909 4.3551089421057 74.46707291107158 1 0 -1
2535 0 1 0 2.150597268917488 11.026839001326938 0.9931912861115747 1 0 0
2533 0 2 0 1.809921490663403 11.897614165267546 1.282085291189219 1 0 0
2534 0 1 0 1.9643055404501533 11.839002967529055 2.2363636628963817 1 0 0
737 0 1 0 2.0893143698150833 13.339678101183003 4.484259743528569 0 0 0
2509 0 2 0 0.5779723439598619 10.363556388774759 5.600958021981424 1 0 0
3044 0 1 0 3.298488651037002 11.587899877999307 4.200571545409336 1 0 0
3045 0 1 0 1.9823753806726387 11.004927209924366 4.72792603091083 1 0 0
3043 0 2 0 2.3277881200953057 11.620715603045925 4.072182271738288 1 0 0
482 0 1 0 4.014847816759512 16.822733278324677 0.8879383596783547 0 0 0
2915 0 1 0 2.235353433128453 16.5580769390278 2.716025675760745 1 0 0
2510 0 1 0 0.19712759238503533 9.582627699764462 5.161426247349291 1 0 0
2774 0 1 0 1.284597548641992 18.005314264451712 3.9491056755147653 1 0 0
483 0 1 0 3.432053514601887 15.380470650513354 0.549870796868124 0 0 0
736 0 2 0 1.7720461895083262 14.223596469532477 4.741096097483236 0 0 0
738 0 1 0 2.0260984081152946 14.498091431016068 5.652331301253009 0 0 0
481 0 2 0 3.676217017737976 15.961616946701174 1.2692426640057612 0 0 0
2914 0 2 0 1.365742926187095 16.310065269011304 3.1011457030960377 1 0 0
2916 0 1 0 1.6366293578674527 15.52188883883532 3.706581713687981 1 0 0
3312 0 1 0 4.076225331556939 16.105973046904964 4.981630886869671 1 0 0
2687 0 1 0 3.0355828847875364 12.761202417432342 0.42152370562841657 1 0 0
3311 0 1 0 3.7851952299282416 17.538675837080092 5.60877388830501 1 0 0
3310 0 2 0 3.515635002849209 16.61629592809409 5.596116410784291 1 0 0
2697 0 1 0 0.26879576572303626 15.901757291423792 1.854224996867005 1 0 0
664 0 2 0 4.49917600440351 18.255451553990355 0.4345818078320153 0 0 0
566 0 1 0 4.574067148801413 15.630525726627374 2.7689397611439888 0 0 0
2904 0 1 0 0.1355103428125659 13.892022284645023 5.2309631452710335 1 0 0
2526 0 1 0 2.192813408081799 9.363460313692336 8.469967045214398 1 0 0
416 0 1 0 1.868237810094278 18.166313819218125 7.051428077724514 0 0 0
2524 0 2 0 1.8107021411701636 9.77760574872231 9.295584788920635 1 0 0
2913 0 1 0 0.8726419555771403 15.63004247303101 11.644568316674771 1 0 0
2946 0 1 0 4.204646822772651 16.35125617062794 7.230852399844579 1 0 0
415 0 2 0 1.6730259591325765 17.870178229614545 7.953312279196378 0 0 0
417 0 1 0 1.0122285447974655 18.435372328523 8.334196900377624 0 0 0
2944 0 2 0 4.766817140781181 15.962880743041513 7.938245113894923 1 0 0
3494 0 1 0 3.0364398591212165 11.271479659707758 9.456133520494632 1 0 0
2506 0 2 0 0.7363035585696808 11.85226109242533 11.457175983328817 1 0 0
2508 0 1 0 1.2864033209239347 12.665144190713479 11.570002148475387 1 0 0
2605 0 2 0 2.2186748256805604 14.187349182895163 12.204153817415456 1 0 0
3040 0 2 0 1.7744931613895176 15.067439834645365 7.587978382601729 1 0 0
2507 0 1 0 1.0786396366291078 11.510803409795635 10.619363469953502 1 0 0
2607 0 1 0 2.975172958003235 14.732824751916112 11.872828974375327 1 0 0
3041 0 1 0 2.7216334494803234 15.007147516894577 7.870628718022656 1 0 0
3042 0 1 0 1.6788563875041715 16.027616749508155 7.686466977810721 1 0 0
2394 0 1 0 0.5237504535700415 13.69746234917338 8.282435556775582 1 0 0
2429 0 1 0 3.717702420777327 16.780177739933 10.371961318562656 1 0 0
2430 0 1 0 4.597922169409466 15.524042052553781 10.03489410548296 1 0 0
3493 0 2 0 3.6099408830711424 12.061276459848811 9.495280018253414 1 0 0
3495 0 1 0 3.793321395890434 12.19737205800551 8.551747417785412 1 0 0
2428 0 2 0 4.090010756732447 15.94393526561718 10.77455988032279 1 0 0
2511 0 1 0 0.03568696885964329 10.409869777879523 6.4887406571585435 1 0 0
2740 0 2 0 3.295059854377351 11.368273455210092 13.664142180703465 1 0 0
2346 0 1 0 2.8168257916710866 12.33771278146769 14.980711981545848 1 0 0
2741 0 1 0 3.7760958225146037 11.755682772790877 12.851281535326894 1 0 0
2344 0 2 0 2.7592587999411635 13.029700119024536 15.75055096252424 1 0 0
2599 0 2 0 2.1975653409617606 9.973240274320114 18.356404684795972 1 0 0
252 0 1 0 1.6034523819744333 12.873656687935945 17.184370897136358 0 0 0
201 0 1 0 4.720608353149376 13.181371431981363 15.864332321800875 0 0 0
2742 0 1 0 3.8914543532001695 10.582376028127982 13.897714658425492 1 0 0
2600 0 1 0 1.6218251279346285 10.781832078639468 18.18562648779932 1 0 0
2651 0 1 0 0.05828127193870358 9.554526231704937 15.567477860019046 1 0 0
250 0 2 0 1.1786503587925985 12.636502091918178 18.01376057955405 0 0 0
2606 0 1 0 1.9803241140220398 14.485053529282654 13.076682898299936 1 0 0
251 0 1 0 0.5866788974237395 13.411758513663203 18.090284836551884 0 0 0
310 0 2 0 4.447676684073583 10.335590229173718 16.763657672920473 0 0 0
312 0 1 0 3.8990115957833082 10.467598231053975 17.555152504823237 0 0 0
292 0 2 0 0.7508004815838526 9.858570678899868 13.840958314361504 0 0 0
2734 0 2 0 3.3484698529400876 15.699117417870392 14.554939335434192 1 0 0
2345 0 1 0 2.7439673990603293 13.88649996749824 15.318858588866128 1 0 0
2735 0 1 0 4.278053327912519 16.00907809690599 14.788388485990653 1 0 0
2982 0 1 0 1.2057255264946114 15.918299853963338 15.83059275981096 1 0 0
293 0 1 0 1.630799171305056 10.302512772073026 13.977077425139683 0 0 0
2736 0 1 0 2.930788799769843 16.51138123669344 14.214866907612036 1 0 0
2652 0 1 0 0.3883426541091111 9.435185897341102 17.133488309698574 1 0 0
2770 0 2 0 0.09402654172077116 17.7107091979939 13.435627267182467 1 0 0
2980 0 2 0 0.3451458108092712 16.184794688383764 16.209808385743088 1 0 0
294 0 1 0 0.2845976494662356 10.562511554465468 13.397661612158377 0 0 0
2772 0 1 0 0.010548354330047971 17.1818151112017 12.591657736351138 1 0 0
2601 0 1 0 1.8532927190375164 9.621646703281717 19.20471959412536 1 0 0
3510 0 1 0 1.1511739477816054 11.685104253236872 72.70921143193226 1 0 -1
697 0 2 0 3.9650534186239637 17.925738151664966 71.62766564383169 0 0 -1
3048 0 1 0 1.360693866916708 10.544181799510913 70.90983917329912 1 0 -1
2930 0 1 0 0.25929463217789944 14.915045302611274 74.55874527591713 1 0 -1
1086 0 1 0 3.834125072395127 11.740732810084321 71.82610182407461 0 0 -1
1085 0 1 0 4.16076737272626 13.268532947808936 72.02099396610386 0 0 -1
3508 0 2 0 0.39879628347710966 11.666230063535513 73.25996585061034 1 0 -1
1084 0 2 0 4.4236005738583675 12.366553499787612 72.31746887713076 0 0 -1
2929 0 2 0 0.31702651770573925 14.42220387014024 73.73994285559546 1 0 -1
2684 0 1 0 3.3798514705795224 15.615527400307572 71.53394901669672 1 0 -1
3046 0 2 0 2.2069551669872105 10.574400741171303 71.36875882466869 1 0 -1
3509 0 1 0 0.3442846170449976 12.621607973161073 73.4686725339667 1 0 -1
2683 0 2 0 3.0361438818629907 14.786560798604734 71.87365310929937 1 0 -1
2685 0 1 0 2.25050489702904 15.003344899440988 72.39123511260347 1 0 -1
2688 0 1 0 3.7259061533932822 12.894413873789146 73.99759016514456 1 0 -1
3047 0 1 0 2.4714787022645854 9.613117967013332 71.31393220683488 1 0 -1
698 0 1 0 4.271520677627434 17.71737254226686 72.52694997883967 0 0 -1
107 0 1 0 0.11114642898296699 10.30790325582004 74.4764035809628 0 0 -1
2686 0 2 0 3.7296900434642035 13.24276336025576 74.91456483407889 1 0 -1
235 0 2 0 0.17312841363764264 18.127103079102277 73.69536319842922 0 0 -1
699 0 1 0 4.641873092807004 17.673727198022178 71.0130578886174 0 0 -1
3000 0 1 0 2.8979355439281402 20.22525860560968 3.4642329716953775 1 0 0
2999 0 1 0 4.034334793957609 21.042287346781276 3.0859873986278084 1 0 0
742 0 2 0 2.3644280911176487 24.425247974582057 2.7543398542113455 0 0 0
2998 0 2 0 3.840301627182849 20.097610802862615 3.2600871800382025 1 0 0
3426 0 1 0 1.2975388006401158 24.92597746644677 4.497685343470385 1 0 0
666 0 1 0 4.668534207200785 18.597404789830993 1.3681596271426475 0 0 0
3051 0 1 0 0.5455370341548774 21.675681604680204 2.2503746479435836 1 0 0
1311 0 1 0 0.27305014297575037 26.970844388872216 4.622286420828144 1 -1 0
1114 0 2 0 4.35788874286873 27.16278072301722 0.050066965064508216 0 0 0
241 0 2 0 4.694498593732917 22.574599856363022 2.6542945774271938 0 0 0
665 0 1 0 3.590406093209341 18.696566748966642 0.2819049451210565 0 0 0
3049 0 2 0 0.5535988826459214 20.709635998139756 2.0205794838225377 1 0 0
892 0 2 0 3.7161676719764096 26.830060430036724 2.8976568777717464 0 0 0
430 0 2 0 3.5229101774021703 23.342662428146763 5.833100791899388 0 0 0
3424 0 2 0 0.740881343018019 25.34411480077959 5.174149388794166 1 0 0
3050 0 1 0 0.6764577276477385 20.145110443888495 2.8401350419316134 1 0 0
2796 0 1 0 1.724410755390976 20.061774360308036 0.49048528257431523 1 0 0
893 0 1 0 4.4183014199518 26.645525355478384 3.5162577593341102 0 0 0
2775 0 1 0 0.7293115007617499 18.9951574462245 5.071383707311759 1 0 0
3425 0 1 0 1.3829158104700034 25.292893780707658 5.993486723061267 1 0 0
2773 0 2 0 1.1772790104994637 18.963488270534487 4.22080232855285 1 0 0
431 0 1 0 4.480918085842682 23.572085220550996 5.919543364968487 0 0 0
743 0 1 0 2.7847774264743053 25.262568159358366 2.8586215159553494 0 0 0
744 0 1 0 3.0599836569162187 23.776484921193337 2.937986206794468 0 0 0
1119 0 1 0 2.4361531706318464 24.79273830008083 0.7461247254952279 0 0 0
586 0 2 0 4.74453343001129 19.164042505139605 5.693824755868912 0 0 0
1115 0 1 0 4.383912187772368 26.982096683712225 0.9915892853781578 0 0 0
3482 0 1 0 0.32253376061248834 26.15752891635698 0.418072918447425 1 0 0
588 0 1 0 4.087324772807523 19.676721170665292 6.178238781154569 0 0 0
587 0 1 0 4.655316128509785 19.394133095005547 4.738158283646668 0 0 0
894 0 1 0 3.2504411870309378 27.674188852566157 3.251812030809934 0 0 0
1710 0 1 0 1.7557479804957767 26.023983561083305 8.008962170969884 1 0 0
432 0 1 0 3.1375572763522768 23.7738309254561 6.596678246712551 0 0 0
2923 0 2 0 2.660295782107415 20.876490833774078 6.978905697922579 1 0 0
3267 0 1 0 0.34161774499025716 25.67083987011368 12.481739806422757 1 0 0
427 0 2 0 3.5928808481612338 26.114485241418876 10.853231047287093 0 0 0
2924 0 1 0 3.0975819637290387 21.060731178945336 7.8161927666019295 1 0 0
3147 0 1 0 3.9129873986723296 20.44778183169107 9.479264172323594 1 0 0
3023 0 1 0 1.8548333466162072 22.75897947393092 11.26339304079216 1 0 0
3024 0 1 0 3.3018405716324275 22.424948063243956 10.721432176456862 1 0 0
1709 0 1 0 0.9848088488373559 24.88281468422229 8.45690925637488 1 0 0
2925 0 1 0 2.813271630494375 21.613723631721115 6.354052438774771 1 0 0
2932 0 2 0 0.21760238975162335 22.160885069327417 11.379284148984693 1 0 0
958 0 2 0 1.459087159461443 27.72040169133756 8.010959621178078 0 0 0
3145 0 2 0 4.003946213470055 21.395163124540687 9.189561443794126 1 0 0
428 0 1 0 2.7303269435689503 26.411146032607004 10.658761900247569 0 0 0
2140 0 2 0 0.7696810444502636 26.594807544036776 10.724594079744099 1 0 0
1708 0 2 0 1.6984107685589527 25.024405436271625 7.842906109049915 1 0 0
3022 0 2 0 2.7864126641309888 23.08322572189855 11.326230060592106 1 0 0
2142 0 1 0 0.9017379782922464 27.5675964671074 10.932042270540933 1 0 0
3109 0 2 0 3.5353195072783485 18.801762084662133 10.001700743611835 1 0 0
429 0 1 0 3.395161336627553 25.210449090852144 11.086099021502132 0 0 0
3339 0 1 0 0.24864145745632882 19.98047353670374 10.641014099448451 1 0 0
3213 0 1 0 0.7162950419289597 20.987305273018194 7.5118464352606535 1 0 0
3110 0 1 0 3.1342873799584567 18.95945060679384 10.880996025885368 1 0 0
2995 0 2 0 2.4908993194150026 18.893943094478693 12.275860804022491 1 0 0
2141 0 1 0 0.06086923894095975 26.539852472897767 10.011888277764605 1 0 0
3111 0 1 0 2.848222008534063 18.789225963391743 9.334054918010551 1 0 0
3172 0 2 0 3.179054507826476 21.35827972047413 13.540115539773378 1 0 0
2996 0 1 0 1.6724527500229887 18.561038718779585 12.727151439679602 1 0 0
3265 0 2 0 0.015282837475602787 25.430087242572995 13.414770443691285 1 0 0
2887 0 2 0 3.671902185870847 21.190992876937052 17.398531591632114 1 0 0
2076 0 1 0 2.2412329291997337 22.029931271072208 14.97925476226015 1 0 0
2074 0 2 0 1.837600632520586 22.482073505772785 15.733889325776852 1 0 0
2889 0 1 0 3.028880088378721 21.625298501151384 16.85764037140568 1 0 0
2997 0 1 0 2.7057050372204006 19.669853177494968 12.830805739924378 1 0 0
2984 0 1 0 2.8838882289380643 25.837180020880034 15.168906725744105 1 0 0
2985 0 1 0 1.5452947367841512 25.336989036982292 14.469751178229211 1 0 0
3173 0 1 0 4.099274331751247 21.482359409373984 13.832325951381073 1 0 0
3115 0 2 0 4.256423827464159 27.327196314626143 15.28179999698444 1 0 0
2973 0 1 0 0.1450366345825625 22.707815393490712 15.349845677465655 1 0 0
3174 0 1 0 3.053188492396432 22.069158425156957 12.80009353588799 1 0 0
2075 0 1 0 1.9705131084946432 23.462542921534677 15.492134157074618 1 0 0
2983 0 2 0 2.389354963680663 25.03112202948277 14.82918933947547 1 0 0
2888 0 1 0 3.9048210640360175 21.80991004015815 18.133118105644364 1 0 0
2258 0 1 0 2.3607766140092896 21.73662331077086 67.92783438695622 0 0 -1
3440 0 1 0 3.2699452961963456 20.96392596096126 74.02309843144025 1 0 -1
2794 0 2 0 2.1968513411807593 19.57689462990422 74.75919075262253 1 0 -1
3223 0 2 0 1.982268400457686 23.568844360553 72.71099735802734 1 0 -1
1943 0 1 0 0.44478427460962905 22.898570527887948 73.39289760044801 1 0 -1
2257 0 2 0 2.7484209536444872 21.70899533990994 68.79136705043402 0 0 -1
3439 0 2 0 3.980510942150452 21.558946727240897 73.72085804758518 1 0 -1
1117 0 2 0 2.107966118213246 25.20242538695443 74.91537161568674 0 0 -1
2795 0 1 0 1.5095646000179244 19.10205819601241 74.30120198296167 1 0 -1
3441 0 1 0 4.414903737347434 21.093145052853522 72.89131474572834 1 0 -1
3225 0 1 0 2.9066298474316796 23.175428659243124 72.79781280884097 1 0 -1
3498 0 1 0 1.8101783539022909 24.13258106632113 71.07433644832317 1 0 -1
3496 0 2 0 1.7440544052211442 24.71957951863389 70.23846670126605 1 0 -1
3224 0 1 0 1.8774030460350644 24.1585025913179 73.4909572877626 1 0 -1
3334 0 2 0 2.000434789947064 27.6071818265182 70.48853961104065 1 0 -1
3269 0 1 0 1.0651078748751153 21.37955673347342 69.51877059592127 1 0 -1
3336 0 1 0 2.0269002853693703 26.657101557190774 70.79329994021577 1 0 -1
3497 0 1 0 1.1474535584451795 24.25663293635707 69.62201552887177 1 0 -1
2410 0 2 0 4.779565825536763 27.50905583706748 69.53172449888963 1 -1 -1
484 0 2 0 4.5056313733968585 24.531415430083943 69.36160497945833 0 0 -1
2259 0 1 0 3.684053019601173 22.031464574293665 68.76087190589809 0 0 -1
486 0 1 0 3.574680612820438 24.33648154107278 69.57626910358188 0 0 -1
2412 0 1 0 3.906612510889062 27.560954684564507 69.97245036523127 1 -1 -1
3268 0 2 0 0.10783919201935284 21.506773002667 69.74468248712796 1 0 -1
1118 0 1 0 2.7283267530313657 25.91137680578416 74.75365162732683 0 0 -1
2411 0 1 0 4.801737516703456 26.661357995751942 69.03020407138943 1 -1 -1
3356 0 1 0 4.678100881765817 24.942259913377697 71.8785485645271 1 0 -1
874 0 2 0 2.1377843199016007 29.37970887597491 3.8381283331401654 0 0 0
801 0 1 0 4.76696457927671 36.6408797699813 5.251030963309072 0 0 0
844 0 2 0 2.269955805102693 31.075302825537726 1.318657744324489 0 0 0
875 0 1 0 2.0702171806807548 30.085336022979938 3.1183079923609673 0 0 0
876 0 1 0 1.232021031741799 28.935552008776472 4.104622005334372 0 0 0
240 0 1 0 2.651812913033881 29.55526541631041 5.543527184801943 0 -1 0
176 0 1 0 0.027186857154056554 32.79047776562694 3.09258973110216 0 -1 0
800 0 1 0 4.297210710006994 35.191876010514804 4.961984362552987 0 0 0
3463 0 2 0 3.7874112292076165 31.970816193199276 5.243700258777839 1 0 0
845 0 1 0 1.7309276347885325 31.872378963007645 1.3844179704611654 0 0 0
881 0 1 0 0.2602372505661582 34.798602631693356 5.5924828248322624 0 0 0
1309 0 2 0 0.03260491778147667 27.87887631826097 4.2057328718967 1 -1 0
799 0 2 0 3.9450022894106307 36.08030732793866 5.246039141111279 0 0 0
2802 0 1 0 0.5440147088704654 34.276624355623106 1.2451892597348773 1 -1 0
846 0 1 0 3.142194369076472 31.33271880789212 1.401524394042754 0 0 0
2615 0 1 0 3.3304787746733875 36.44822118305352 1.781535670097236 1 -1 0
3465 0 1 0 3.2641475387524586 32.3925908814153 4.60547297364738 1 0 0
33 0 1 0 2.074981445711123 34.21634904995224 4.288804421497688 0 -1 0
882 0 1 0 0.4282495255960616 35.84116432296265 4.4121146755617575 0 0 0
2614 0 2 0 3.422246294298221 35.47279785648536 1.6748207986124155 1 -1 0
31 0 2 0 2.6358849767203276 33.83574138008039 3.639054360984129 0 -1 0
32 0 1 0 2.722530074364008 34.39872720964806 2.850062849641739 0 -1 0
2616 0 1 0 2.7421984893411864 35.21998729856359 1.010419963341773 1 -1 0
2800 0 2 0 1.1047549800903804 34.790599308306234 0.592834335809462 1 -1 0
3464 0 1 0 4.455281716970221 32.66052253344241 5.575887604179072 1 0 0
2666 0 1 0 0.18590059230626213 36.625756639216576 0.07817952888018558 1 -1 0
3476 0 1 0 4.545498390379569 28.454060061324842 7.223870515839782 1 0 0
2778 0 1 0 0.43053325273227966 32.257513479667544 12.247105811209446 1 0 0
331 0 2 0 1.6694165356564192 28.968968495785067 11.529058032771868 0 -1 0
810 0 1 0 4.23480231815311 34.031355278680664 9.710463703017256 0 0 0
332 0 1 0 2.6427452780400102 28.993831501258143 11.328363003161767 0 -1 0
2777 0 1 0 1.3544298284073446 32.2245213654041 10.94353163893815 1 0 0
973 0 2 0 4.694670900492278 29.921759941393802 10.35238241279765 0 0 0
1050 0 1 0 0.4407834164804631 29.49078148142334 10.173000228333503 0 0 0
993 0 1 0 0.9676502233233538 32.275393362119004 7.59355607824191 0 0 0
3210 0 1 0 3.3963822699297967 32.34102284460671 8.40149367933457 1 0 0
924 0 1 0 0.6865313184372075 36.68943656556241 11.311958383728308 0 0 0
3208 0 2 0 3.2932430733049807 32.33169384604256 9.381271038825972 1 0 0
991 0 2 0 0.7925216646039241 31.27247663963308 7.277779689124095 0 0 0
992 0 1 0 1.752006965885702 30.89649900133421 7.112071088856504 0 0 0
333 0 1 0 1.597608684551368 29.26525446821637 12.443627006181062 0 -1 0
1049 0 1 0 0.05926121548394141 30.219944235141185 8.843457112624733 0 0 0
43 0 2 0 0.6262559066419633 34.00314882183007 7.560427754008346 0 -1 0
2776 0 2 0 1.1790001113280983 32.723618245450446 11.761738521701654 1 0 0
3209 0 1 0 3.879083611799526 31.637712016705173 9.727414332030207 1 0 0
2268 0 1 0 3.0616255859847477 36.55480192208807 7.547407150649487 1 0 0
809 0 1 0 4.242785638534789 35.496530663698316 9.608185067293919 0 0 0
45 0 1 0 1.2539232947402568 34.68224176896861 7.950716741189084 0 -1 0
808 0 2 0 4.684978835609673 34.76510154481615 10.072929411311337 0 0 0
2266 0 2 0 2.74760935307668 36.37811241566121 8.42094470176339 1 0 0
959 0 1 0 1.6433662176141102 28.527844683847125 7.49803147296596 0 0 0
960 0 1 0 0.7770302582916789 27.964629282825438 8.552498347617748 0 0 0
632 0 1 0 4.334499312189576 34.99224583125574 11.687492600781917 0 0 0
922 0 2 0 0.11606688358445134 36.87480786426744 10.532716004339322 0 0 0
238 0 2 0 2.954683962497274 29.5603924104202 6.529992618454063 0 -1 0
239 0 1 0 3.427144734598804 30.367741015892427 6.323404754040988 0 -1 0
1091 0 1 0 3.8091429078789694 30.780873341267867 14.740916179995134 0 0 0
1090 0 2 0 4.359615702161758 30.283416507029226 15.371851350865379 0 0 0
653 0 1 0 3.154338445632011 32.568418606936056 14.351635116165586 0 0 0
1025 0 1 0 0.758596501942482 29.40255609587841 14.528572268305401 0 0 0
1024 0 2 0 1.3992665205607755 29.94280582305873 14.003114879413982 0 0 0
858 0 1 0 1.99790225590989 36.258076624134404 17.882047475273616 0 0 0
512 0 1 0 3.432890443976531 30.614731546394527 16.65190981909985 0 0 0
11 0 1 0 4.064348020600514 35.52562423158519 17.43203818910531 0 -1 0
3117 0 1 0 4.13140539370301 28.26663174553584 15.060670909062418 1 0 0
702 0 1 0 2.1189152371437547 32.446442209676405 16.39774068929584 0 0 0
511 0 2 0 2.927334097121121 30.9637225167609 17.471109337435387 0 0 0
1026 0 1 0 1.0813083711160625 30.841110009020422 14.013473754743254 0 0 0
2765 0 1 0 1.2710714939479608 29.467918102471142 17.316140264930986 1 0 0
513 0 1 0 3.6706472486564277 31.12826624168028 18.096104324475693 0 0 0
2200 0 2 0 1.4428637443678518 36.357144656071384 12.887335675644442 0 0 0
2202 0 1 0 1.064814631892244 36.17939568940824 13.74186159172395 0 0 0
2201 0 1 0 2.032881588057647 35.610578945272024 12.631787738942776 0 0 0
10 0 2 0 3.3185674762557635 35.053976448710465 17.831146573639344 0 -1 0
700 0 2 0 2.3818764563622032 33.19315260601494 15.831316689212647 0 0 0
701 0 1 0 1.5701512722093793 33.75469984653803 15.571306375573617 0 0 0
652 0 2 0 3.4750093744218558 32.209615455788615 13.460152408465293 0 0 0
12 0 1 0 3.1721200632000723 34.37732900823798 17.097148070911796 0 -1 0
856 0 2 0 1.123440320555019 36.811571131219345 17.77592382100944 0 0 0
633 0 1 0 4.060037962253494 34.05217868712677 12.973083156212756 0 0 0
3156 0 1 0 0.5126855672907719 35.848081531465795 16.346278165114835 1 0 0
2764 0 2 0 0.3952519486334918 29.206848053159405 16.89888046589312 1 0 0
631 0 2 0 3.960554776073039 34.965234506917376 12.631491221213786 0 0 0
857 0 1 0 0.45671238455277774 36.413675334336965 18.380110225705025 0 0 0
3154 0 2 0 0.11405888637155341 35.17983942612733 15.714413634337292 1 0 0
654 0 1 0 2.6766128871102293 32.35032623008585 12.853757067618911 0 0 0
3369 0 1 0 0.8915128998334676 29.805522905110394 68.37444528321917 1 0 -1
2077 0 2 0 2.501994587420755 28.982716778028074 68.0416242353991 1 0 -1
2079 0 1 0 3.3879787629986224 29.076102004619493 67.65230057332312 1 0 -1
3368 0 1 0 0.31091718575347016 31.1920814728162 67.80798749816776 1 0 -1
3367 0 2 0 0.17229397646140748 30.456789559070533 68.48742390752848 1 0 -1
3274 0 2 0 1.6900996691014167 31.517080721485847 70.77127022752182 1 0 -1
2967 0 1 0 3.765277398534227 29.6465644545648 72.68881322053446 1 0 -1
2965 0 2 0 2.8969863590905214 29.461283020571678 72.1789367706466 1 0 -1
1157 0 1 0 0.8526721322134553 32.06280316645933 73.78385922056852 0 0 -1
3276 0 1 0 0.8676356076963307 31.193640250070263 70.28133248121226 1 0 -1
835 0 2 0 4.15836721268824 32.52693434601882 73.64198337358297 0 0 -1
2966 0 1 0 2.5596199964897743 30.274559813004423 71.70765257916113 1 0 -1
442 0 2 0 0.5386074757713037 29.205552252622606 74.05553995781368 0 0 -1
837 0 1 0 4.413360511846758 32.43866187755779 72.65956837957067 0 0 -1
3275 0 1 0 1.3973975794911941 32.040117215039075 71.55417210827859 1 0 -1
1158 0 1 0 2.3686347348371606 32.481507910015544 73.46484892440893 0 0 -1
1156 0 2 0 1.4709144265121286 32.65552034177552 73.26707019395047 0 0 -1
443 0 1 0 1.4515622745725225 29.218377758811947 73.64091582284027 0 0 -1
2354 0 1 0 1.1964148969340909 35.87482717568651 69.00456256821367 1 -1 -1
179 0 1 0 4.428893076854822 36.35084318937705 72.02902856335918 0 -1 -1
299 0 1 0 3.6170245069618296 31.88854846708916 70.2397624769884 0 -1 -1
354 0 1 0 0.06058593552890733 36.37774568871796 72.10059902011865 0 -1 -1
836 0 1 0 4.426260897911792 31.759689704456246 74.16082588261123 0 0 -1
2801 0 1 0 1.3036890634564764 34.19235671414761 74.85844914364867 1 -1 -1
3466 0 2 0 4.169770321577459 35.56737174800942 70.50830939648633 1 0 -1
300 0 1 0 4.296671202766326 33.27284751870097 70.41663742892338 0 -1 -1
298 0 2 0 4.348603279056913 32.36624390037357 70.7432135950269 0 -1 -1
2078 0 1 0 2.554529444886678 28.464566933974808 68.89523955347698 1 0 -1