LAMMPS (4 Feb 2025)
OMP_NUM_THREADS environment is not set. Defaulting to 1 thread. (src/comm.cpp:99)
  using 1 OpenMP thread(s) per MPI task
# LAMMPS script for continuing NVT simulation

atom_modify map yes
newton      on

read_restart nvt_prod.restart.1120000
Reading restart file ...
  restart file = 4 Feb 2025, LAMMPS = 4 Feb 2025
  restoring atom style full from restart
  orthogonal box = (0 0 0) to (154.008 148.2 151.07609)
  16 by 8 by 11 MPI processor grid
  pair style symmetrix/mace stores no restart info
  11640 atoms
Finding 1-2 1-3 1-4 neighbors ...
  special bond factors lj:    0        0        0       
  special bond factors coul:  0        0        0       
     0 = max # of 1-2 neighbors
     0 = max # of 1-3 neighbors
     0 = max # of 1-4 neighbors
     1 = max # of special neighbors
  special bonds CPU = 4.922 seconds
  read_restart CPU = 5.110 seconds

pair_style  symmetrix/mace
pair_coeff  * * ../../../../00-common/models/ch2o-dens-inv_swa-1-6-8.json C H O
Loading MACE model from '../../../../00-common/models/ch2o-dens-inv_swa-1-6-8.json' ... success
  mapping LAMMPS type 1 (C) to MACE type 1
  mapping LAMMPS type 2 (H) to MACE type 0
  mapping LAMMPS type 3 (O) to MACE type 2

group graphene type 1
8640 atoms in group graphene
group H2O type 2 3
3000 atoms in group H2O

thermo 1000

######### NVT production for 80 ps #############

dump DUMP1 all atom 100 nvt_prod_14.lammpstrj
timestep 0.001
fix NVT1 graphene nvt temp 300 300 0.1
Resetting global fix info from restart file:
  fix style: nvt, fix ID: NVT1
fix NVT2 H2O nvt temp 300 300 0.1
Resetting global fix info from restart file:
  fix style: nvt, fix ID: NVT2
run 80000
All restart file global fix info was re-assigned
Neighbor list info ...
  update: every = 1 steps, delay = 0 steps, check = yes
  max neighbors/atom: 2000, page size: 100000
  master list distance cutoff = 8
  ghost atom cutoff = 8
  binsize = 4, bins = 39 38 38
  1 neighbor lists, perpetual/occasional/extra = 1 0 0
  (1) pair symmetrix/mace, perpetual
      attributes: full, newton on
      pair build: full/bin
      stencil: full/bin/3d
      bin: standard
Per MPI rank memory allocation (min/avg/max) = 5.922 | 6.139 | 8.038 Mbytes
   Step          Temp          E_pair         E_mol          TotEng         Press     
   1120000   300.17071     -1809869.3      0             -1809417.7      46.318646    
   1121000   299.48362     -1809879.4      0             -1809428.9     -4.1418373    
   1122000   301.04776     -1809872.2      0             -1809419.3     -14.630488    
   1123000   302.37047     -1809880.2      0             -1809425.3     -20.162092    
   1124000   297.26742     -1809880.2      0             -1809433       -6.1955565    
   1125000   297.15618     -1809872.1      0             -1809425        12.993735    
   1126000   295.20781     -1809880.7      0             -1809436.5      33.345063    
   1127000   308.11333     -1809884.3      0             -1809420.8      46.22442     
   1128000   301.62387     -1809880.4      0             -1809426.6      30.285486    
   1129000   301.34149     -1809872.5      0             -1809419.1      6.6573102    
   1130000   300.86229     -1809875        0             -1809422.4      26.722295    
   1131000   299.78715     -1809878.3      0             -1809427.3      45.009765    
   1132000   299.94031     -1809879.2      0             -1809428       -1.0329135    
   1133000   297.82698     -1809881.9      0             -1809433.8      40.053759    
   1134000   302.74102     -1809880.9      0             -1809425.5      31.938513    
   1135000   297.20995     -1809881.2      0             -1809434.1      48.810592    
   1136000   303.60158     -1809885.2      0             -1809428.5      45.897674    
   1137000   299.55272     -1809874        0             -1809423.3      17.152519    
   1138000   296.32609     -1809885.5      0             -1809439.7      14.481568    
   1139000   302.15036     -1809878.1      0             -1809423.5      18.787413    
   1140000   302.00343     -1809882        0             -1809427.6      18.587403    
   1141000   298.58756     -1809882.4      0             -1809433.2      66.768303    
   1142000   302.73768     -1809875.8      0             -1809420.4      71.549873    
   1143000   301.11868     -1809879.3      0             -1809426.3      6.3185653    
   1144000   300.95214     -1809880.2      0             -1809427.4      16.549654    
   1145000   299.4505      -1809878.2      0             -1809427.7      29.536907    
   1146000   301.95639     -1809872.4      0             -1809418.1      39.309086    
   1147000   299.87505     -1809880.6      0             -1809429.4      41.423251    
   1148000   299.87446     -1809887.4      0             -1809436.2      46.621258    
   1149000   300.56136     -1809879.5      0             -1809427.4      29.663965    
   1150000   301.27584     -1809887.1      0             -1809433.8      29.294433    
   1151000   296.36983     -1809871.5      0             -1809425.6     -10.676193    
   1152000   296.79851     -1809865.8      0             -1809419.3      7.6378936    
   1153000   299.28189     -1809876.1      0             -1809425.8      10.377054    
   1154000   303.22117     -1809868.3      0             -1809412.1     -16.076278    
   1155000   297.64869     -1809877.4      0             -1809429.6      4.3523667    
   1156000   300.10018     -1809877.5      0             -1809426       -7.605047     
   1157000   296.46392     -1809876.9      0             -1809430.9      8.960814     
   1158000   303.87925     -1809883        0             -1809425.9     -9.2203225    
   1159000   299.4525      -1809876.8      0             -1809426.3      17.116988    
   1160000   296.05384     -1809883        0             -1809437.6      33.346127    
   1161000   301.08646     -1809876.5      0             -1809423.6      26.349366    
   1162000   298.07946     -1809879.5      0             -1809431.1      18.537384    
   1163000   305.0948      -1809879.6      0             -1809420.6     -1.2449232    
   1164000   301.0475      -1809877.4      0             -1809424.5     -6.0134062    
   1165000   300.55227     -1809877.4      0             -1809425.3      8.3280066    
   1166000   299.82411     -1809870        0             -1809418.9      11.020879    
   1167000   301.63446     -1809879.7      0             -1809425.9      50.512127    
   1168000   300.19921     -1809876.8      0             -1809425.2      12.336512    
   1169000   302.3303      -1809874.9      0             -1809420.1      51.101954    
   1170000   302.35117     -1809881.4      0             -1809426.6      21.907765    
   1171000   301.66035     -1809873.3      0             -1809419.5      45.814875    
   1172000   297.08276     -1809876.2      0             -1809429.2      24.415585    
   1173000   298.57936     -1809879.4      0             -1809430.2      59.964637    
   1174000   302.03573     -1809877.1      0             -1809422.7      16.565361    
   1175000   296.80322     -1809885.9      0             -1809439.4      15.878574    
   1176000   298.02328     -1809873.5      0             -1809425.2     -16.863005    
   1177000   295.41572     -1809874.8      0             -1809430.3     -2.1730682    
   1178000   299.91108     -1809878.6      0             -1809427.4      15.050018    
   1179000   299.7648      -1809880.7      0             -1809429.8     -12.149578    
   1180000   300.11994     -1809877.7      0             -1809426.1     -29.003944    
   1181000   304.90716     -1809880.3      0             -1809421.6     -2.7044109    
   1182000   302.39221     -1809876        0             -1809421.1      4.6169086    
   1183000   300.77846     -1809875.7      0             -1809423.2      37.781767    
   1184000   302.02775     -1809881.3      0             -1809426.9      36.818216    
   1185000   297.0318      -1809883.6      0             -1809436.8      25.675044    
   1186000   300.21381     -1809878.1      0             -1809426.4      45.957984    
   1187000   298.82333     -1809875.4      0             -1809425.8      35.47699     
   1188000   298.48243     -1809872.4      0             -1809423.3      48.682767    
   1189000   298.22707     -1809887.4      0             -1809438.7      56.197054    
   1190000   297.9131      -1809876.2      0             -1809428        55.094258    
   1191000   300.62662     -1809873.8      0             -1809421.5      36.517353    
   1192000   300.44536     -1809876.1      0             -1809424.1      34.459435    
   1193000   301.04522     -1809872.5      0             -1809419.6     -11.378468    
   1194000   303.2362      -1809887.4      0             -1809431.2      2.642254     
   1195000   299.8798      -1809882.2      0             -1809431.1      12.125447    
   1196000   298.70598     -1809876.1      0             -1809426.7      39.298463    
   1197000   301.31424     -1809883.8      0             -1809430.5      31.814596    
   1198000   298.93827     -1809878.1      0             -1809428.3     -3.5574042    
   1199000   298.80996     -1809878.7      0             -1809429.1      19.225257    
   1200000   301.27118     -1809882.1      0             -1809428.9      19.506686    
Loop time of 47280.1 on 1408 procs for 80000 steps with 11640 atoms

Performance: 0.146 ns/day, 164.167 hours/ns, 1.692 timesteps/s, 19.695 katom-step/s
100.0% CPU use with 1408 MPI tasks x 1 OpenMP threads

MPI task timing breakdown:
Section |  min time  |  avg time  |  max time  |%varavg| %total
---------------------------------------------------------------
Pair    | 0.12268    | 3756.8     | 46794      |13806.6 |  7.95
Bond    | 0.0031617  | 0.0068829  | 0.037215   |   7.3 |  0.00
Neigh   | 0.01371    | 0.10561    | 4.1174     |  98.5 |  0.00
Comm    | 0.49535    | 1400.2     | 20361      |9693.7 |  2.96
Output  | 1.0146     | 6.1364     | 11.613     | 125.1 |  0.01
Modify  | 8.917      | 42109      | 47266      |5571.6 | 89.06
Other   |            | 7.822      |            |       |  0.02

Nlocal:        8.26705 ave         208 max           0 min
Histogram: 1266 2 54 59 5 4 4 4 7 3
Nghost:        90.4638 ave        1431 max           0 min
Histogram: 1070 125 169 11 9 9 4 6 3 2
Neighs:              0 ave           0 max           0 min
Histogram: 1408 0 0 0 0 0 0 0 0 0
FullNghs:      891.534 ave       38729 max           0 min
Histogram: 1267 112 6 3 2 4 3 5 3 3

Total # of neighbors = 1255280
Ave neighs/atom = 107.84192
Ave special neighs/atom = 0
Neighbor list builds = 3758
Dangerous builds = 0

write_restart nvt_prod.restart.*
System init for write_restart ...
write_data nvt_prod_final.lammps-data
System init for write_data ...

Total wall time: 13:08:32
