LAMMPS data file via write_data, version 4 Feb 2025, timestep = 1200000, units = metal

11640 atoms
3 atom types

0 154.00799999999998 xlo xhi
0 148.2 ylo yhi
0 151.07609208607428 zlo zhi

Masses

1 12.01099999691024
2 1.007999999740698
3 15.99899999588435

Atoms # full

6492 0 1 0 0.7857962683939181 2.171629162321055 47.406403439259705 1 0 1
6503 0 1 0 2.194985292125557 2.225550360781367 47.56081146099553 1 0 1
6504 0 1 0 2.903631275722734 3.418193950412502 47.585905624029365 1 0 1
6513 0 1 0 4.352309916074897 3.384668813637674 47.700334892563696 1 0 1
6502 0 1 0 2.9337775075615586 0.9785835827226301 47.51083289980454 1 0 1
6511 0 1 0 4.333130350936738 0.8787010666472427 47.65715510587803 1 0 1
10046 0 2 0 3.5586087478783734 15.56636812845637 53.92783571577689 1 0 1
6494 0 1 0 0.8414334752409995 4.603495876875059 47.272043253785505 1 0 1
10673 0 3 0 6.654722046684067 17.944005062277146 53.496618451573006 1 0 1
6512 0 1 0 5.046656002928892 2.1462148046504255 47.735149059640484 1 0 1
6523 0 1 0 6.498439767905388 2.2090103019867744 47.8044319946762 1 0 1
6522 0 1 0 7.200813049956916 0.9891269004970702 47.79769512696733 1 0 1
6524 0 1 0 7.151448565091866 3.4191088797643876 48.01249641680294 1 0 1
6533 0 1 0 8.609658244726296 3.4375124822082097 48.12806421627983 1 0 1
6532 0 1 0 9.357111452287246 2.2340859683035847 48.09732574671577 1 0 1
6531 0 1 0 8.609250237268556 0.9978887438510742 47.88873588753976 1 0 1
6525 0 1 0 6.4583882976427835 4.687174492117834 47.97418724339332 1 0 1
6505 0 1 0 2.257494273641638 4.640106443779674 47.40628863879166 1 0 1
9343 0 2 0 3.248307796862705 5.663475820837586 49.94949836832529 1 0 1
6507 0 1 0 2.291569744458533 7.132290538795756 47.392487838690776 1 0 1
6517 0 1 0 4.366696024320938 8.381246092137426 47.77131154858566 1 0 1
6508 0 1 0 2.9517717027860075 8.411772837370275 47.62301809509705 1 0 1
6496 0 1 0 0.8435362488770013 7.1390449052041065 47.231595779913725 1 0 1
6515 0 1 0 4.390905088618157 5.901231800702968 47.708456386026505 1 0 1
6506 0 1 0 2.998242070446348 5.946524810708134 47.41267857838213 1 0 1
6493 0 1 0 0.10153110311854607 3.409751296027154 47.26161327376567 1 0 1
6491 0 1 0 0.06948198260716677 0.9665827412377536 47.27835675770432 1 0 1
6514 0 1 0 5.081839049747449 4.664495288976368 47.76434762199965 1 0 1
6534 0 1 0 9.341462590736388 4.659374776136711 48.13453496562734 1 0 1
6516 0 1 0 5.10212218966109 7.1492226007186215 47.87211787253972 1 0 1
6527 0 1 0 6.517180495629235 7.1735787328182985 48.08385906097428 1 0 1
6528 0 1 0 7.262706234743185 8.375793849935327 48.06343156754679 1 0 1
6526 0 1 0 7.200086107278061 5.949607367500292 48.057346637021745 1 0 1
6537 0 1 0 8.690631957214139 8.355150014021945 48.073484431597365 1 0 1
6535 0 1 0 8.599233925199218 5.873273795920552 48.163715816079154 1 0 1
6536 0 1 0 9.350809241459697 7.090724972027165 48.08643602448679 1 0 1
6562 0 1 0 2.9467749685349918 13.351251990633195 47.45382288539407 1 0 1
6571 0 1 0 4.336177850009269 13.301186055604708 47.66020903661473 1 0 1
6500 0 1 0 0.7897044890695442 12.072694165736156 47.35708831434125 1 0 1
6498 0 1 0 0.8105691453151436 9.58787389266978 47.25978287714435 1 0 1
6510 0 1 0 2.9270909632316813 10.853522775526267 47.55545350690614 1 0 1
6519 0 1 0 4.324479535017082 10.818334947358343 47.84275020229974 1 0 1
6509 0 1 0 2.18392581583512 9.66848209443223 47.52809690579605 1 0 1
6501 0 1 0 2.2087019939270847 12.122865818945318 47.446779083128696 1 0 1
9031 0 2 0 0.7748640589093582 12.447887164781235 52.75572175447769 1 0 1
10836 0 3 0 0.13643093626410369 13.179451937955914 53.04140221192831 1 0 1
6495 0 1 0 0.14016107459318966 5.853975528942716 47.25627305378154 1 0 1
10165 0 2 0 1.645648599650456 11.477382610260975 50.72560005267386 1 0 1
9414 0 2 0 0.8336074212994562 14.407222989704978 49.984408138677054 1 0 1
6518 0 1 0 5.065092830891539 9.597677896220413 47.84317505389057 1 0 1
6520 0 1 0 5.0470202031574605 12.073967464220285 47.79898932054221 1 0 1
6529 0 1 0 6.511546592634554 9.593423500961464 47.98740557326551 1 0 1
6530 0 1 0 7.252179987326385 10.832411061888228 48.09700334363982 1 0 1
6521 0 1 0 6.5011469602975485 12.086790215551003 47.93719264657009 1 0 1
6582 0 1 0 7.186746281717183 13.298052498444221 47.854728326002935 1 0 1
6538 0 1 0 9.363415396248362 9.611880394794182 48.188804927075154 1 0 1
6539 0 1 0 8.67285336712931 10.860659246579548 48.192568657793935 1 0 1
6591 0 1 0 8.610594274700205 13.288712994788982 48.0271935482626 1 0 1
6540 0 1 0 9.34239347582079 12.092480311399282 48.29749777704595 1 0 1
6552 0 1 0 0.8566103629865225 14.530838232138938 47.21928627122418 1 0 1
6554 0 1 0 0.877397436896253 16.995331384095703 47.031035217999 1 0 1
6563 0 1 0 2.304882200173073 14.550435890119234 47.297695458274504 1 0 1
6565 0 1 0 2.262690889955294 16.992269591615322 47.13236550532673 1 0 1
6566 0 1 0 2.9281341607471947 18.241344980838512 47.13200184692344 1 0 1
6564 0 1 0 3.005332680720971 15.784840866639653 47.27423321441102 1 0 1
6573 0 1 0 4.420594483998754 15.803462456171882 47.34486717263283 1 0 1
6575 0 1 0 4.313164206190673 18.26400313932618 47.13938420880637 1 0 1
6555 0 1 0 0.08155203667237504 18.23378543513024 46.78061334212713 1 0 1
10799 0 3 0 0.21928805302722634 17.50294525087445 50.184756659404584 1 0 1
9259 0 2 0 3.1493857812369286 16.843716887118738 50.52429817500995 1 0 1
9606 0 2 0 6.615240577067048 14.303299468273597 52.70670157496831 1 0 1
9717 0 2 0 5.739501102819768 8.925280075431134 54.479893709953274 1 0 1
9304 0 2 0 1.9023763815311405 10.652463629196085 54.16077206438509 1 0 1
11193 0 3 0 6.374748570559656 17.843099863596144 50.74634221938698 1 0 1
10244 0 2 0 8.192098325034607 15.484100861200634 51.275587382641454 1 0 1
10243 0 2 0 6.913048131699134 15.836074782270414 50.59075303287117 1 0 1
11442 0 3 0 7.329682564610711 15.101970246099203 51.07896950372615 1 0 1
11343 0 3 0 2.7336089330929605 15.345093306863445 53.38313945463494 1 0 1
6574 0 1 0 5.053990538365187 17.023963801535068 47.340439175671676 1 0 1
6572 0 1 0 5.105434477403834 14.504098507554849 47.51424026094291 1 0 1
6499 0 1 0 0.11345106629502633 10.808768010414989 47.21497875076618 1 0 1
6595 0 1 0 8.616436585981672 18.27130359436099 47.84853299444137 1 0 1
6586 0 1 0 7.1888839007574346 18.256230015514106 47.71926354935023 1 0 1
6583 0 1 0 6.473010439755915 14.49136704499599 47.73981016727104 1 0 1
6585 0 1 0 6.506883096312977 16.99989829474751 47.57202317564944 1 0 1
6593 0 1 0 8.559603827678998 15.77291178679588 47.95255439245582 1 0 1
6584 0 1 0 7.164104470675015 15.765419571025006 47.7602831563073 1 0 1
6592 0 1 0 9.288306749549438 14.550385452551792 48.11893182887071 1 0 1
6594 0 1 0 9.280001654396942 17.047629114067405 48.02911557115456 1 0 1
6553 0 1 0 0.16466444227459454 15.774631027176094 47.08107231102233 1 0 1
9032 0 2 0 0.38378951462891325 13.525395417896295 53.92816172554736 1 0 1
6497 0 1 0 0.11863367085015394 8.34463111685865 47.07966155668789 1 0 1
9771 0 2 0 1.1905911414450419 5.207088907641048 50.6748734197416 1 0 1
11206 0 3 0 0.2153921662337461 5.109008410760238 50.34945457887432 1 0 1
10992 0 3 0 3.080152761947186 5.753245169642326 50.93355170073878 1 0 1
9344 0 2 0 2.9031511180902205 6.723990573917545 51.045787715082476 1 0 1
8951 0 2 0 4.267052010875269 8.93148664019531 51.59661727781923 1 0 1
8818 0 2 0 3.983835413235627 5.0718659345903285 52.6012255894682 1 0 1
8706 0 2 0 6.719548919116159 17.843757816290996 52.5273019355387 1 0 1
11499 0 3 0 2.4772860873919997 8.146110787490992 52.05076747081968 1 0 1
10358 0 2 0 1.6641123904224489 8.48312578710087 51.602449299060446 1 0 1
10357 0 2 0 2.2976763838819307 8.015301221562138 53.02394886602618 1 0 1
10648 0 3 0 3.014102424191309 7.7526383265343854 54.83353556884363 1 0 1
10950 0 3 0 3.1869022122261743 17.81009240277327 50.480576022610144 1 0 1
8817 0 2 0 3.808891335588549 5.874862705990712 53.957949468268104 1 0 1
10796 0 3 0 5.194907537674213 9.252761127708967 51.377461814390784 1 0 1
8952 0 2 0 5.804611200697893 8.621816054197616 51.811515757484976 1 0 1
10729 0 3 0 4.366876328088317 5.1923046706942975 53.52259605076554 1 0 1
9716 0 2 0 5.698101721442835 6.444918036496448 53.54006995101769 1 0 1
9715 0 2 0 7.1138312708745515 6.58470487834034 53.99263065806391 1 0 1
11178 0 3 0 6.346186797031692 7.1434126874830515 53.782356577024 1 0 1
11179 0 3 0 5.065852297767507 9.52740353004733 54.8687065956785 1 0 1
9303 0 2 0 3.06831128033071 11.614093460173354 53.65381106555711 1 0 1
11217 0 3 0 3.5495854443532386 12.403304639796808 50.702174537278275 1 0 1
9793 0 2 0 4.092547123126121 12.53872962990657 49.89121738220755 1 0 1
9794 0 2 0 4.207451633764002 12.018399034798044 51.39320597063245 1 0 1
10972 0 3 0 2.250068799881662 11.587051864801731 54.12574606949931 1 0 1
9696 0 2 0 5.504736939550903 16.543897368706013 54.504987862061036 1 0 1
9718 0 2 0 4.952138588263201 10.352041818032031 54.39035177114109 1 0 1
10133 0 2 0 5.3853734039402275 10.894018208096881 52.284014952005315 1 0 1
10134 0 2 0 5.5482746052866165 12.356013152056432 53.08667962352347 1 0 1
11387 0 3 0 4.9243188024546845 11.626135443006179 52.75500953644901 1 0 1
11403 0 3 0 0.8844406425999917 10.88835607006016 50.79655750060478 1 0 1
10039 0 2 0 3.423427289636649 18.270532084172533 52.55676464137407 1 0 1
10103 0 2 0 0.9392932399775941 16.718758065363186 53.48609432347262 1 0 1
9605 0 2 0 5.9851345417117345 14.424502154459885 54.110362925440825 1 0 1
9234 0 2 0 2.9632757774818375 14.100206657804383 50.776080116315214 1 0 1
10937 0 3 0 2.4556990472064437 15.008421963796685 50.73818887506822 1 0 1
9233 0 2 0 2.4215607542243784 15.189635966569211 51.70055022010887 1 0 1
11168 0 3 0 4.953479485188598 15.752125016015592 54.81851206665833 1 0 1
11123 0 3 0 6.394436155625209 13.733603350335416 53.50798440393137 1 0 1
6551 0 1 0 0.10155818235121654 13.29015294262126 47.220882846010994 1 0 1
9260 0 2 0 2.212751431205883 17.953678257539035 50.48139729854576 1 0 1
10045 0 2 0 2.12331479321367 14.860228916887145 53.95688274423429 1 0 1
10166 0 2 0 0.23096148812577402 11.28560516313595 50.187907910341224 1 0 1
9746 0 2 0 5.511139165389971 17.942176088320693 50.19686192927447 1 0 1
9847 0 2 0 9.500975642469083 17.503390362770805 50.954030649731784 1 0 1
11372 0 3 0 0.06110207112833133 17.050835433968725 53.27059536247201 1 0 1
8705 0 2 0 7.532666386572045 18.038989187011524 53.9312105773227 1 0 1
10246 0 2 0 0.13220779773710203 8.686993757486142 50.15732815080475 1 0 1
8958 0 2 0 0.1748397947624784 16.569609795513145 50.02831859168209 1 0 1
8655 0 2 0 3.7689480232388983 8.40021943010412 54.93266921296951 1 0 1
9599 0 2 0 0.32475875024206396 8.634516905566734 54.867839858730946 1 0 1
11345 0 3 0 0.9246517803368516 9.748120034960248 58.64322856249986 1 0 1
9011 0 2 0 0.467603440789196 7.99572766960848 57.85549140287995 1 0 1
10826 0 3 0 0.6662068383293708 7.248803612041903 57.274899948610056 1 0 1
10614 0 2 0 3.968714893397831 17.96715206908612 59.80498797511273 1 0 1
8656 0 2 0 2.6067343349781713 7.672915608624852 55.723130624991484 1 0 1
11627 0 3 0 3.422378464421852 17.53720489352456 60.53747014443256 1 0 1
9185 0 2 0 1.8633769260163333 12.969187073027268 58.14373721809899 1 0 1
10049 0 2 0 1.5913132714891252 10.253732615730824 58.15687040268152 1 0 1
8686 0 2 0 3.8953001282024706 12.67588961589844 59.74457331722196 1 0 1
10663 0 3 0 4.566164602662518 13.222396573268393 59.30132368768188 1 0 1
9999 0 2 0 2.2422020733572077 11.481252207796762 56.135283630855085 1 0 1
10000 0 2 0 3.5031256433573996 10.867950923781848 56.91549312090969 1 0 1
11320 0 3 0 2.666514037440014 11.350929308561936 57.08533012651624 1 0 1
9443 0 2 0 6.184284237702876 10.082380859256483 56.90026174378752 1 0 1
8685 0 2 0 5.318890936301699 12.742543762368824 59.011351988453825 1 0 1
11042 0 3 0 5.780309392570506 10.885948963730455 57.213827077920406 1 0 1
9695 0 2 0 4.957598045425839 15.709649000583246 55.82146750523559 1 0 1
9186 0 2 0 1.2389713261855286 14.243738608693132 58.806751518132344 1 0 1
10913 0 3 0 1.1136637513892544 13.59787548597585 58.05510839829186 1 0 1
9111 0 2 0 2.131369222250701 16.498144838664157 59.949758970084154 1 0 1
11436 0 3 0 1.3805935677364392 17.189657863907808 56.301384817369616 1 0 1
10876 0 3 0 1.4954976016303383 15.806559155118473 59.588350267843914 1 0 1
9112 0 2 0 0.639449498568531 16.279491403643878 59.52395920769744 1 0 1
10232 0 2 0 1.2387563176396323 16.300869244820525 55.87218445026211 1 0 1
10231 0 2 0 0.5585736142670494 17.65341039987943 56.15883972158272 1 0 1
8823 0 2 0 4.001510542958064 14.513395427504602 57.990388620727174 1 0 1
10732 0 3 0 4.015332664104536 15.342853581233216 57.402189814688 1 0 1
10415 0 2 0 0.5482815034939612 14.355803860749232 61.17732934781997 1 0 1
9444 0 2 0 5.796742992543641 11.39587944595277 56.3994935230763 1 0 1
8824 0 2 0 3.180566915650162 15.765034309854524 57.576685945434726 1 0 1
10613 0 2 0 4.084097635615187 17.20676681624672 61.23289538193399 1 0 1
10318 0 2 0 1.6360814760828275 11.157957816859117 60.336034504435105 1 0 1
10317 0 2 0 1.8988302708673956 12.498156029047314 60.913368915814964 1 0 1
11479 0 3 0 2.3719511606259487 11.762538095357325 60.49126314534994 1 0 1
9628 0 2 0 0.9091736958457922 13.989602055147133 56.34431872878109 1 0 1
10050 0 2 0 0.06735912640052878 10.278113228039533 58.52599985436546 1 0 1
11134 0 3 0 0.7185515466324246 14.455572892766837 55.47521477381543 1 0 1
11528 0 3 0 0.1086298609999282 13.61981657171483 61.71079332107838 1 0 1
9600 0 2 0 0.40588687503966253 9.101822939716751 56.347819027253124 1 0 1
8822 0 2 0 2.788676255402209 18.128301731373046 55.94213347722384 1 0 1
11120 0 3 0 0.2644915394387406 9.452132357103025 55.41771006428693 1 0 1
6613 0 1 0 0.14366811256084452 28.06182683494657 45.89891781717957 1 0 1
6614 0 1 0 0.8234102648665639 29.317395356876546 45.84945029705134 1 0 1
6627 0 1 0 2.2190464316296117 31.838473514298435 45.78112163106716 1 0 1
11001 0 3 0 3.314126868865185 34.198368045809275 54.1581234234899 1 0 1
6616 0 1 0 0.8233043455503861 31.789639379918924 45.72129733556371 1 0 1
6618 0 1 0 0.7681057507941661 34.28772382998133 45.604611738223376 1 0 1
6629 0 1 0 2.1901606445780146 34.28367205221596 45.63812182701874 1 0 1
6628 0 1 0 2.955476143358829 33.05486072909016 45.711925807907754 1 0 1
11104 0 3 0 7.523832319362526 22.585124421349864 50.290411329184714 1 0 1
8739 0 2 0 0.04544666089562162 28.304658453211175 54.09878789910481 1 0 1
6558 0 1 0 0.776722484619707 21.97863996153088 46.718555830527166 1 0 1
6559 0 1 0 0.041184474932502664 23.233701043269694 46.507546958513835 1 0 1
6557 0 1 0 0.04981132710612503 20.735615766622548 46.66033815326174 1 0 1
6556 0 1 0 0.7778964832574852 19.499564368131622 46.81627098961638 1 0 1
6567 0 1 0 2.1933299485530595 19.469725117518056 46.883299775251324 1 0 1
6568 0 1 0 2.905395647155373 20.715652608634464 46.829051250909316 1 0 1
6577 0 1 0 4.35580830889094 20.765584261029343 47.02525571614146 1 0 1
6569 0 1 0 2.1804485649220355 21.946230111933325 46.76264265839675 1 0 1
11428 0 3 0 3.908417560610051 22.67730665428682 50.21166428350096 1 0 1
10216 0 2 0 3.310077784894032 22.154958462524935 49.65991684037424 1 0 1
10215 0 2 0 4.379518548607119 22.00006592140415 50.74080453954394 1 0 1
6570 0 1 0 2.9023183515187365 23.172974178458002 46.696126015284825 1 0 1
6579 0 1 0 4.334844777425778 23.214424627056296 46.90177181564793 1 0 1
10714 0 3 0 2.1430883221147816 20.53442563038689 49.80391819535901 1 0 1
8787 0 2 0 2.6342141314484637 19.77110258624757 49.55557062008641 1 0 1
6576 0 1 0 5.048914582395799 19.508530612874498 47.20629489332957 1 0 1
6578 0 1 0 5.032517180630031 21.97449026481577 47.12713516627619 1 0 1
6587 0 1 0 6.481242233469449 19.4832807683495 47.460699353794205 1 0 1
6589 0 1 0 6.426347902005237 22.014765278148563 47.2576857994168 1 0 1
6588 0 1 0 7.134849457876088 20.754318433326315 47.52031525106999 1 0 1
6597 0 1 0 8.577516371272782 20.75117852044464 47.60073010362015 1 0 1
6596 0 1 0 9.247490369294777 19.518535049571117 47.77756498071449 1 0 1
6598 0 1 0 9.29258774587155 21.969607381871153 47.52774889752204 1 0 1
6599 0 1 0 8.579996910865265 23.21732968880378 47.28144394903281 1 0 1
9745 0 2 0 7.001147860800555 18.577273884338613 50.40049078972784 1 0 1
9361 0 2 0 3.3957332487003096 34.63517274016463 53.25611909400277 1 0 1
6560 0 1 0 0.7659442946392324 24.42801978350684 46.35541999798399 1 0 1
6561 0 1 0 2.1842022924511637 24.34581363093511 46.45993017925226 1 0 1
6612 0 1 0 0.8548342694873166 26.859121451097234 46.06979235862029 1 0 1
6622 0 1 0 2.9301336610553603 25.548798955356506 46.41320935402699 1 0 1
6631 0 1 0 4.346328915211791 25.64248923792407 46.52453340831169 1 0 1
6623 0 1 0 2.2982229666472174 26.797471605836506 46.126695123488105 1 0 1
6611 0 1 0 0.08245260990732924 25.658980347240213 46.210377064313896 1 0 1
8861 0 2 0 4.8222874785545295 24.20891641969227 50.10134970175735 1 0 1
8862 0 2 0 6.136328446085786 24.91910359087823 50.145071807163966 1 0 1
10751 0 3 0 5.170322009695154 25.103628006468686 50.20651239695647 1 0 1
6590 0 1 0 7.165612507193959 23.185520541401473 47.11672460154063 1 0 1
10124 0 2 0 8.98228738715668 27.273159977160816 50.05080564339176 1 0 1
6580 0 1 0 5.058389837445986 24.428191811499804 46.834095486266364 1 0 1
6632 0 1 0 5.1138607626791535 26.85791459465616 46.4807132601196 1 0 1
6643 0 1 0 6.559926749279974 26.838062836702527 46.518621062298045 1 0 1
6642 0 1 0 7.223196812763507 25.645538675411384 46.795306183838704 1 0 1
6581 0 1 0 6.483349284506229 24.431902155295386 46.95590720957923 1 0 1
6600 0 1 0 9.379844473855519 24.39455481096964 47.10148509250925 1 0 1
6651 0 1 0 8.683359939968206 25.595568103096966 46.894435445013556 1 0 1
6652 0 1 0 9.375956638596818 26.863405345615508 46.70428107134856 1 0 1
10123 0 2 0 7.437249360608498 27.324773726904432 50.113919481637424 1 0 1
11382 0 3 0 8.177273617748774 26.72248209476346 50.19818319410894 1 0 1
8774 0 2 0 8.363830614511267 25.619899902317528 51.457616619085584 1 0 1
8773 0 2 0 7.545101163459804 24.744930076630098 52.52650535689161 1 0 1
6625 0 1 0 2.24651243238589 29.323536167085283 45.82472568623983 1 0 1
6626 0 1 0 2.910838047463105 30.59084577564529 45.882754923013096 1 0 1
6633 0 1 0 4.410965875056372 28.07504675700433 46.28362234051681 1 0 1
6624 0 1 0 2.949643368763019 28.051470923712248 46.08629459608086 1 0 1
9363 0 2 0 4.31353297542251 26.344128628832173 49.420139879360065 1 0 1
11002 0 3 0 3.55980325707123 26.95701889103585 49.302100526791726 1 0 1
9364 0 2 0 3.1617236100194797 27.124413417593214 50.18820668577673 1 0 1
9663 0 2 0 1.7892858322234637 28.870282042969997 48.97841451508474 1 0 1
6635 0 1 0 4.390588759802669 30.620963141201862 46.02264460442362 1 0 1
11152 0 3 0 1.3122468565860836 29.694512103182277 49.05307618988213 1 0 1
9664 0 2 0 0.461266280573938 29.435956149781116 48.648693483447715 1 0 1
9809 0 2 0 5.173412835429718 28.452091907724583 49.585115723491064 1 0 1
11225 0 3 0 6.015001177317837 28.603608902119788 50.00404218383913 1 0 1
9810 0 2 0 6.315469852077723 29.38034718741844 49.4933928918705 1 0 1
6636 0 1 0 5.04132219336657 31.887223700918796 45.96682643131157 1 0 1
6634 0 1 0 5.102924058414462 29.356819656005325 46.19088547763791 1 0 1
6644 0 1 0 7.222592565896375 28.1350650992391 46.36447232873709 1 0 1
6646 0 1 0 7.2006963915939615 30.549844637906915 46.061375020557016 1 0 1
6645 0 1 0 6.47971346984311 29.33777944907437 46.13700074978043 1 0 1
6653 0 1 0 8.68925617958696 28.042513686420133 46.42097750117747 1 0 1
6647 0 1 0 6.5180043252808 31.82259249274193 46.04254546485929 1 0 1
6655 0 1 0 8.599614918638396 30.526123681507208 46.30861987879254 1 0 1
6654 0 1 0 9.349286898011918 29.27608027326425 46.517340386856354 1 0 1
6656 0 1 0 9.338374983136092 31.75108275194977 46.40637408034488 1 0 1
9618 0 2 0 0.5829354008364576 30.529541353558603 54.86934665672285 1 0 1
10781 0 3 0 5.152330293619372 31.80462913572895 49.81075352499666 1 0 1
8922 0 2 0 4.776802530990016 32.659629671113414 49.48382923262454 1 0 1
9885 0 2 0 3.60258118938559 28.961402744009284 54.51877415213116 1 0 1
9568 0 2 0 7.952678792536651 23.386104525259164 50.70937835868656 1 0 1
8921 0 2 0 6.06975125645536 32.06472755754788 49.85200208062342 1 0 1
6619 0 1 0 0.0370938597261479 35.49952128800357 45.52837229651863 1 0 1
9863 0 2 0 2.6155820532183105 34.19977572527773 48.59226998837293 1 0 1
6615 0 1 0 0.08712657103561577 30.552535384445626 45.76897534370889 1 0 1
10093 0 2 0 1.3183817863548026 35.989988639046544 50.407976492554766 1 0 1
6620 0 1 0 0.7487881766878436 36.73002575591082 45.71950297960016 1 0 1
6621 0 1 0 2.1849041916518717 36.778724621226964 45.84483363890543 1 0 1
6630 0 1 0 2.9360510196239997 35.53605233935098 45.81279123701902 1 0 1
6639 0 1 0 4.383573763781641 35.54610099459947 45.89505899100883 1 0 1
6637 0 1 0 4.381728356854423 33.112198542678016 45.859936865046826 1 0 1
9362 0 2 0 4.083619545226793 33.60056528972386 54.24476485076422 1 0 1
9864 0 2 0 3.7617173034730778 35.143715173290126 48.33479689087947 1 0 1
11252 0 3 0 3.4874861687309022 34.50274134831114 48.99418178702869 1 0 1
10094 0 2 0 0.42766612560295153 36.494659590522645 49.213730683413424 1 0 1
11367 0 3 0 1.1155952873718484 36.773842686737524 49.87343721526946 1 0 1
6638 0 1 0 5.108104431652622 34.29381689990531 45.968962215277585 1 0 1
6650 0 1 0 7.256967051893236 35.51771157837282 46.21073788537204 1 0 1
6657 0 1 0 8.63421040315735 32.9359585399537 46.25757423615361 1 0 1
6649 0 1 0 6.508105146001685 34.25998643910426 46.096322369293034 1 0 1
6648 0 1 0 7.251513678036848 33.04421890768039 46.12938480158013 1 0 1
6658 0 1 0 9.335930678656222 34.20819404931955 46.3749527968307 1 0 1
6659 0 1 0 8.640497186104202 35.46507763170166 46.332929483881564 1 0 1
6640 0 1 0 5.11379059365371 36.793858267518765 45.96637702649993 1 0 1
6660 0 1 0 9.383849704824666 36.71610087513766 46.36924403895395 1 0 1
6641 0 1 0 6.5335836818345605 36.77194603094536 46.086756800082995 1 0 1
8788 0 2 0 2.3479643864595015 20.68181462714275 50.7607107982132 1 0 1
10696 0 3 0 1.744464044322259 21.07972227453364 52.706104691243134 1 0 1
11340 0 3 0 3.568886981612688 18.999566725147783 53.21416760043125 1 0 1
8751 0 2 0 2.3558774019602993 20.427722933740647 53.11647069205516 1 0 1
8752 0 2 0 0.9588185112407378 20.4214890014942 52.55517594305002 1 0 1
11597 0 3 0 5.271544725756069 20.63572045179858 52.03444122843026 1 0 1
10553 0 2 0 4.812808802129035 19.843125483916317 52.387778203514 1 0 1
8932 0 2 0 4.564571134499463 21.86208661185824 53.406762401864434 1 0 1
10040 0 2 0 3.664840799859833 18.691124279574684 54.1829515915419 1 0 1
8815 0 2 0 2.396739984464015 23.27701737948539 52.82186785980653 1 0 1
10748 0 3 0 7.756384736280374 21.051275394766634 53.209602855651205 1 0 1
8856 0 2 0 7.918055775805141 21.943810638763434 52.787795056905296 1 0 1
11303 0 3 0 2.2270439984103585 34.56433348399716 51.23710751130208 1 0 1
10258 0 2 0 5.5262096291834935 31.32406341535795 53.281071366666694 1 0 1
10981 0 3 0 0.9066472754339064 32.898588865721614 54.5471405830515 1 0 1
11151 0 3 0 1.418689370825066 24.59613000241635 49.565093124972684 1 0 1
10269 0 2 0 7.998814204662386 19.85962019185527 51.586443794527554 1 0 1
10554 0 2 0 6.199650430738522 20.57544746872846 52.346423183327126 1 0 1
8931 0 2 0 4.715390052146915 23.433345489822493 53.88939238465445 1 0 1
10786 0 3 0 4.472075067074751 22.51582364834787 54.15840774539753 1 0 1
8855 0 2 0 7.487061386345011 21.171193300157256 54.11610545669597 1 0 1
10544 0 2 0 1.0696072167693507 26.869967055906397 52.3543171637609 1 0 1
10389 0 2 0 0.2313987309323184 34.135956185561135 48.8227781752257 1 0 1
10270 0 2 0 8.26545990618514 20.622285312318624 50.396136929220674 1 0 1
10728 0 3 0 2.6490314964154873 24.00150312848233 52.251182660385766 1 0 1
10543 0 2 0 2.163916867071617 25.727041439403145 52.40752864615208 1 0 1
11339 0 3 0 5.690008389730534 24.96633396473739 53.393901770001705 1 0 1
10037 0 2 0 5.436889760574852 25.496019605485575 52.660225301362395 1 0 1
8816 0 2 0 3.2224301752137174 23.520368707497926 51.55324072535783 1 0 1
6617 0 1 0 0.08799110524860687 33.04225550182603 45.6639466650965 1 0 1
11592 0 3 0 2.0372406207793485 26.712395855912575 52.18996961590326 1 0 1
8930 0 2 0 8.267421251836563 32.60518505170513 50.45640157718611 1 0 1
9661 0 2 0 2.1278285850488015 25.261627343269726 49.41777968876269 1 0 1
8718 0 2 0 9.042779507656851 26.508190371232356 53.92538604799576 1 0 1
10679 0 3 0 8.614699317687297 27.31025089406661 54.235002392744825 1 0 1
8717 0 2 0 7.90875999821172 27.453603809990597 53.59046741531164 1 0 1
10707 0 3 0 8.392962106422123 24.76741377832622 52.08065451257411 1 0 1
10257 0 2 0 3.9970341789452277 31.12950588916594 53.27965945748693 1 0 1
11460 0 3 0 2.6944242112357255 30.83793656950393 51.23680743719025 1 0 1
9662 0 2 0 1.464680638008986 24.509829754967242 50.500780807406244 1 0 1
10280 0 2 0 3.5049642950143394 31.245734315590695 50.88890574869225 1 0 1
10279 0 2 0 2.055856761396045 30.858832266582255 50.432657175528306 1 0 1
9000 0 2 0 5.485476501663748 28.631006790684072 53.02267774803591 1 0 1
10484 0 2 0 2.9442935402041885 29.385160928329746 52.30445666354128 1 0 1
11562 0 3 0 3.475535627811695 28.78650504993026 52.90917784506918 1 0 1
10483 0 2 0 3.086453736420455 27.970252227847702 52.606651907353495 1 0 1
10570 0 2 0 8.586730895271247 30.676799832373295 53.37818853580594 1 0 1
11455 0 3 0 8.397430719520365 19.66355610624084 50.668146511484814 1 0 1
10569 0 2 0 7.106676624250412 30.188106293293682 53.10937976181212 1 0 1
11605 0 3 0 7.6968106495693736 30.99976822409892 53.08736145242827 1 0 1
11449 0 3 0 4.723629118910751 31.653724758289446 53.70674847578476 1 0 1
10785 0 3 0 8.343409186069993 31.649703597984384 50.519569435230586 1 0 1
10820 0 3 0 6.46440482340834 28.69363159927032 52.72668856192704 1 0 1
8999 0 2 0 6.384515052692667 28.579474509459317 51.793867883520164 1 0 1
8929 0 2 0 8.297906448134707 31.36899781142333 51.5366161507916 1 0 1
10038 0 2 0 5.734441229048436 25.495799531168142 54.23097621055591 1 0 1
9966 0 2 0 2.003926987731159 33.601928905266625 51.119649971127664 1 0 1
9965 0 2 0 2.7476432885633746 34.762944084722555 50.43459964327218 1 0 1
9321 0 2 0 1.7170285685638313 33.43547587028212 54.47894331204106 1 0 1
11515 0 3 0 1.0665536428887599 33.62485957173997 48.6883992685588 1 0 1
10390 0 2 0 0.8589477894459197 32.74232512819258 48.33046464328505 1 0 1
9567 0 2 0 7.690795472561664 22.861137092984446 49.32366484325558 1 0 1
8740 0 2 0 0.28689010477058213 26.843544049548978 54.57399287144323 1 0 1
10151 0 2 0 0.02131293055099581 26.095912541134243 49.280734238708256 1 0 1
9593 0 2 0 3.0001812589273404 21.708503263599837 57.90106047053482 1 0 1
11117 0 3 0 3.131067937804711 21.993675348970164 58.862801495624815 1 0 1
10574 0 2 0 1.6825667158996351 23.251985495551093 59.701303316689945 1 0 1
9594 0 2 0 3.5216937794685825 22.85237654988497 58.76541265176741 1 0 1
10731 0 3 0 3.538120038434893 18.76839759481978 55.818185309002715 1 0 1
9782 0 2 0 3.259338261662663 21.22882246529517 60.41223849179177 1 0 1
10567 0 2 0 2.5724499203037317 35.1454684992074 55.53983404972937 1 0 1
8821 0 2 0 3.2244527346337284 19.702325556737204 55.87428799888955 1 0 1
10838 0 3 0 2.8132361650239 21.375400141083453 56.155723459049085 1 0 1
9036 0 2 0 1.8287195728714183 21.385533841328712 55.87625282038326 1 0 1
10500 0 2 0 6.311881004355913 20.986768992196694 56.22664758854287 1 0 1
8661 0 2 0 2.7016348597517226 25.23317664042075 55.081538764755436 1 0 1
9164 0 2 0 4.378764838711327 19.797781712833213 58.7762119058017 1 0 1
10902 0 3 0 4.759310112514944 18.969135193750176 58.50894883851068 1 0 1
9163 0 2 0 4.345320030141452 18.789223237228846 57.66401339170807 1 0 1
10568 0 2 0 1.5490258681558804 36.3341840679079 55.45266710994849 1 0 1
10383 0 2 0 3.1392055572175397 25.276920505130356 57.93066097470987 1 0 1
11218 0 3 0 1.431723721999403 26.858889580117108 58.03566664612743 1 0 1
11512 0 3 0 3.8853754706961876 24.853857801218044 58.35380765290844 1 0 1
9795 0 2 0 1.2553773774500188 27.831195809964907 57.923582603440785 1 0 1
11129 0 3 0 1.0109324010795928 29.66130390689552 54.95481118082184 1 0 1
9035 0 2 0 3.1994425497971775 21.978078827354157 55.46062135926024 1 0 1
8662 0 2 0 1.9786442266796436 26.12749979414544 56.20205349012791 1 0 1
10470 0 2 0 5.0191684709246855 27.28131870221232 55.53007083836194 1 0 1
10469 0 2 0 6.435981064976528 26.81636149146627 55.71982831180971 1 0 1
11555 0 3 0 5.552357431796029 26.43297781900282 55.6952994904475 1 0 1
10384 0 2 0 4.608725203495681 25.44794450150773 58.20667729640828 1 0 1
10352 0 2 0 0.5836462824980542 31.53384931053891 60.445130380249324 1 0 1
11263 0 3 0 3.974627690858333 28.85628375168447 55.43312205814128 1 0 1
8867 0 2 0 0.10869000266376348 35.23976679193618 56.8761712673717 1 0 1
11402 0 3 0 0.9336362517487469 26.28432786935579 61.29561948234884 1 0 1
10651 0 3 0 1.8063919003987563 25.438047506672206 55.53529955643222 1 0 1
10163 0 2 0 1.5486925389357824 26.749685736880767 60.70338707652581 1 0 1
11094 0 3 0 0.10352553472375733 21.294491356585233 61.187047824240125 1 0 1
9886 0 2 0 4.463822532180449 29.660925263278976 55.58416791490606 1 0 1
10164 0 2 0 0.9669749511619582 25.368647659583885 60.87079348074374 1 0 1
9548 0 2 0 1.0315231732027836 20.9525048166734 61.08592582015557 1 0 1
11570 0 3 0 6.7241303131117425 21.70676898995748 55.72277371838749 1 0 1
11604 0 3 0 1.863909660449577 35.60030890503431 56.045366479925676 1 0 1
11211 0 3 0 3.0138276561501933 20.84322091525911 61.30671460528684 1 0 1
9781 0 2 0 3.2681321144628024 19.890729753685328 61.23760675678972 1 0 1
9796 0 2 0 0.5718532595287081 26.428985976627747 58.14829472696841 1 0 1
9617 0 2 0 1.1041608252318063 29.66045293156368 55.9448493194345 1 0 1
10573 0 2 0 0.4826299333285688 22.826266511171514 60.651675587730736 1 0 1
9322 0 2 0 0.4012517700049532 33.52445943365803 55.13206907922599 1 0 1
11607 0 3 0 0.8551297558423027 23.58207149198442 60.08660567992916 1 0 1
11496 0 3 0 0.7603710296481411 31.94159132725927 59.59202697859253 1 0 1