LAMMPS (4 Feb 2025)
OMP_NUM_THREADS environment is not set. Defaulting to 1 thread. (src/comm.cpp:99)
  using 1 OpenMP thread(s) per MPI task
# LAMMPS script for running NVT simulation

units       metal
dimension   3
boundary    p p p
atom_style  full
atom_modify map yes

newton      on

read_data   ../start.lammps-data
Reading data file ...
  orthogonal box = (0 0 0) to (154.77804 148.93524 151.07317)
  16 by 8 by 8 MPI processor grid
  reading atoms ...
  11640 atoms
  reading velocities ...
  11640 velocities
Finding 1-2 1-3 1-4 neighbors ...
  special bond factors lj:    0        0        0       
  special bond factors coul:  0        0        0       
     0 = max # of 1-2 neighbors
     0 = max # of 1-3 neighbors
     0 = max # of 1-4 neighbors
     1 = max # of special neighbors
  special bonds CPU = 5.762 seconds
  read_data CPU = 5.935 seconds

pair_style  symmetrix/mace
pair_coeff  * * ../../../00-common/models/ch2o-dens-inv_swa-1-6-8.json C H O
Loading MACE model from '../../../00-common/models/ch2o-dens-inv_swa-1-6-8.json' ... success
  mapping LAMMPS type 1 (C) to MACE type 1
  mapping LAMMPS type 2 (H) to MACE type 0
  mapping LAMMPS type 3 (O) to MACE type 2

variable t equal step

group graphene type 1
8640 atoms in group graphene
group H2O type 2 3
3000 atoms in group H2O

thermo 1000

######### NVT equilibration for 80 ps #############

dump DUMP1 all atom 100 nvt_equi.lammpstrj
timestep 0.001
fix NVT1 graphene nvt temp 300 300 0.1
fix NVT2 H2O nvt temp 300 300 0.1
run 80000
Neighbor list info ...
  update: every = 1 steps, delay = 0 steps, check = yes
  max neighbors/atom: 2000, page size: 100000
  master list distance cutoff = 8
  ghost atom cutoff = 8
  binsize = 4, bins = 39 38 38
  1 neighbor lists, perpetual/occasional/extra = 1 0 0
  (1) pair symmetrix/mace, perpetual
      attributes: full, newton on
      pair build: full/bin
      stencil: full/bin/3d
      bin: standard
Per MPI rank memory allocation (min/avg/max) = 5.921 | 6.239 | 8.676 Mbytes
   Step          Temp          E_pair         E_mol          TotEng         Press     
         0   78.173347     -1810209.8      0             -1810092.2     -615.03184    
      1000   82.877855     -1810204        0             -1810079.4     -693.79617    
      2000   153.18833     -1810112.1      0             -1809881.6     -1119.1598    
      3000   288.972       -1809933        0             -1809498.3     -1563.8413    
      4000   309.59368     -1809915.7      0             -1809449.9     -1500.0197    
      5000   293.22622     -1809911        0             -1809469.9     -1441.8086    
      6000   299.17946     -1809908.2      0             -1809458.1     -1492.4932    
      7000   294.49333     -1809918.4      0             -1809475.3     -1298.4618    
      8000   298.24578     -1809897.2      0             -1809448.5     -1437.9375    
      9000   295.21304     -1809913.3      0             -1809469.2     -1261.3279    
     10000   296.55383     -1809919.3      0             -1809473.1     -1246.9368    
     11000   302.29248     -1809910.9      0             -1809456.1     -1287.4316    
     12000   302.54289     -1809911.1      0             -1809455.9     -1193.4105    
     13000   299.43878     -1809916.6      0             -1809466.1     -1155.2168    
     14000   301.66053     -1809914.9      0             -1809461       -1208.0289    
     15000   301.54745     -1809913.5      0             -1809459.8     -1102.5307    
     16000   299.25041     -1809919.1      0             -1809468.9     -1072.4224    
     17000   299.44209     -1809914.8      0             -1809464.3     -1048.5199    
     18000   299.59586     -1809917.8      0             -1809467       -1033.0205    
     19000   300.81749     -1809918.2      0             -1809465.6     -961.94582    
     20000   299.63109     -1809914.8      0             -1809464       -1025.4544    
     21000   301.10705     -1809919        0             -1809466       -934.02886    
     22000   299.08294     -1809918.3      0             -1809468.3     -946.31284    
     23000   297.99396     -1809922.8      0             -1809474.5     -951.63373    
     24000   298.95657     -1809924.2      0             -1809474.4     -912.62085    
     25000   298.15899     -1809921.7      0             -1809473.1     -821.93989    
     26000   299.72722     -1809915.8      0             -1809464.8     -907.78957    
     27000   295.76286     -1809917.8      0             -1809472.8     -906.8127     
     28000   301.48483     -1809926.9      0             -1809473.3     -840.62344    
     29000   301.01174     -1809922.4      0             -1809469.5     -812.77156    
     30000   298.10736     -1809927.5      0             -1809479       -847.91814    
     31000   300.83001     -1809920.2      0             -1809467.7     -800.28664    
     32000   303.50572     -1809916.6      0             -1809460       -797.95117    
     33000   298.79739     -1809923.7      0             -1809474.2     -762.32437    
     34000   300.36342     -1809918.6      0             -1809466.7     -786.0573     
     35000   302.52601     -1809921.4      0             -1809466.3     -743.10036    
     36000   297.7019      -1809916.9      0             -1809469       -774.11434    
     37000   299.79487     -1809919.5      0             -1809468.5     -762.53899    
     38000   298.06062     -1809922.1      0             -1809473.6     -745.48426    
     39000   299.29008     -1809927.5      0             -1809477.3     -747.49695    
     40000   302.77074     -1809924.6      0             -1809469.1     -723.14869    
     41000   302.21861     -1809916.7      0             -1809462.1     -747.53452    
     42000   298.471       -1809926.2      0             -1809477.2     -725.11301    
     43000   295.36095     -1809925        0             -1809480.7     -725.71243    
     44000   298.42323     -1809923.2      0             -1809474.2     -700.57987    
     45000   303.14109     -1809929.2      0             -1809473.2     -707.78574    
     46000   302.20414     -1809930.7      0             -1809476.1     -712.92974    
     47000   300.19751     -1809923.5      0             -1809471.9     -680.64057    
     48000   297.11713     -1809922.8      0             -1809475.8     -702.16556    
     49000   294.83569     -1809927.8      0             -1809484.2     -706.59211    
     50000   300.63128     -1809931.3      0             -1809479       -685.01227    
     51000   301.74085     -1809928.2      0             -1809474.2     -678.35089    
     52000   300.7737      -1809930        0             -1809477.5     -682.80605    
     53000   303.39857     -1809924.2      0             -1809467.7     -679.40582    
     54000   300.00782     -1809926.5      0             -1809475.1     -657.58594    
     55000   298.671       -1809927.8      0             -1809478.5     -665.68234    
     56000   300.29394     -1809932.2      0             -1809480.4     -689.11629    
     57000   299.97745     -1809925.2      0             -1809473.9     -691.62999    
     58000   301.84678     -1809927.5      0             -1809473.4     -675.3849     
     59000   298.02668     -1809933.2      0             -1809484.8     -650.2453     
     60000   297.12455     -1809930.9      0             -1809483.9     -649.92411    
     61000   299.98152     -1809917.9      0             -1809466.6     -665.78415    
     62000   299.51742     -1809926.1      0             -1809475.5     -646.3774     
     63000   298.75471     -1809923.9      0             -1809474.5     -657.79861    
     64000   297.81941     -1809927.7      0             -1809479.7     -656.9014     
     65000   300.65138     -1809927.7      0             -1809475.3     -668.44178    
     66000   300.91042     -1809926.6      0             -1809473.9     -649.73981    
     67000   299.79816     -1809928        0             -1809477       -659.09685    
     68000   299.12187     -1809921        0             -1809471       -675.18282    
     69000   300.41477     -1809924.4      0             -1809472.4     -648.18817    
     70000   297.62456     -1809927.1      0             -1809479.3     -649.82952    
     71000   301.31916     -1809927.7      0             -1809474.3     -628.29639    
     72000   299.09127     -1809917.3      0             -1809467.3     -655.60774    
     73000   298.42732     -1809931.2      0             -1809482.2     -660.30661    
     74000   298.46658     -1809926.4      0             -1809477.4     -654.88134    
     75000   298.28929     -1809931.8      0             -1809483       -650.33847    
     76000   301.22357     -1809928.9      0             -1809475.7     -625.10508    
     77000   301.25648     -1809932.7      0             -1809479.5     -641.00862    
     78000   299.11853     -1809924.7      0             -1809474.7     -638.75289    
     79000   299.82545     -1809926.9      0             -1809475.8     -632.06944    
     80000   303.09094     -1809927.3      0             -1809471.3     -632.84284    
Loop time of 58525.3 on 1024 procs for 80000 steps with 11640 atoms

Performance: 0.118 ns/day, 203.213 hours/ns, 1.367 timesteps/s, 15.911 katom-step/s
100.0% CPU use with 1024 MPI tasks x 1 OpenMP threads

MPI task timing breakdown:
Section |  min time  |  avg time  |  max time  |%varavg| %total
---------------------------------------------------------------
Pair    | 1370.1     | 5448.3     | 22898      |6053.6 |  9.31
Bond    | 0.0047244  | 0.013494   | 0.078395   |  11.6 |  0.00
Neigh   | 0.1347     | 0.54039    | 2.9423     | 101.5 |  0.00
Comm    | 21.656     | 1926.2     | 6672.9     |3459.3 |  3.29
Output  | 11.259     | 15.991     | 21.124     |  74.8 |  0.03
Modify  | 30920      | 51123      | 57079      |2463.4 | 87.35
Other   |            | 11.49      |            |       |  0.02

Nlocal:        11.3672 ave         258 max           0 min
Histogram: 886 3 110 6 2 7 2 0 1 7
Nghost:        94.2373 ave        1486 max           0 min
Histogram: 754 128 112 6 8 4 5 3 1 3
Neighs:              0 ave           0 max           0 min
Histogram: 1024 0 0 0 0 0 0 0 0 0
FullNghs:      1203.22 ave       50128 max           0 min
Histogram: 889 110 8 3 4 2 1 0 3 4

Total # of neighbors = 1232096
Ave neighs/atom = 105.85017
Ave special neighs/atom = 0
Neighbor list builds = 3726
Dangerous builds = 0

write_restart nvt_equi.restart.*
System init for write_restart ...
write_data nvt_equi_final.lammps-data
System init for write_data ...

Total wall time: 16:15:51
