LAMMPS (4 Feb 2025)
OMP_NUM_THREADS environment is not set. Defaulting to 1 thread. (src/comm.cpp:99)
  using 1 OpenMP thread(s) per MPI task
# LAMMPS script for continuing NVT simulation

atom_modify map yes
newton      on

read_restart nvt_prod.restart.880000
Reading restart file ...
  restart file = 4 Feb 2025, LAMMPS = 4 Feb 2025
  restoring atom style full from restart
  orthogonal box = (0 0 0) to (155.54808 149.67621 151.07317)
  16 by 8 by 8 MPI processor grid
  pair style symmetrix/mace stores no restart info
  11640 atoms
Finding 1-2 1-3 1-4 neighbors ...
  special bond factors lj:    0        0        0       
  special bond factors coul:  0        0        0       
     0 = max # of 1-2 neighbors
     0 = max # of 1-3 neighbors
     0 = max # of 1-4 neighbors
     1 = max # of special neighbors
  special bonds CPU = 4.008 seconds
  read_restart CPU = 4.171 seconds

pair_style  symmetrix/mace
pair_coeff  * * ../../../00-common/models/ch2o-dens-inv_swa-1-6-8.json C H O
Loading MACE model from '../../../00-common/models/ch2o-dens-inv_swa-1-6-8.json' ... success
  mapping LAMMPS type 1 (C) to MACE type 1
  mapping LAMMPS type 2 (H) to MACE type 0
  mapping LAMMPS type 3 (O) to MACE type 2

group graphene type 1
8640 atoms in group graphene
group H2O type 2 3
3000 atoms in group H2O

thermo 1000

######### NVT production for 80 ps #############

dump DUMP1 all atom 100 nvt_prod_11.lammpstrj
timestep 0.001
fix NVT1 graphene nvt temp 300 300 0.1
Resetting global fix info from restart file:
  fix style: nvt, fix ID: NVT1
fix NVT2 H2O nvt temp 300 300 0.1
Resetting global fix info from restart file:
  fix style: nvt, fix ID: NVT2
run 80000
All restart file global fix info was re-assigned
Neighbor list info ...
  update: every = 1 steps, delay = 0 steps, check = yes
  max neighbors/atom: 2000, page size: 100000
  master list distance cutoff = 8
  ghost atom cutoff = 8
  binsize = 4, bins = 39 38 38
  1 neighbor lists, perpetual/occasional/extra = 1 0 0
  (1) pair symmetrix/mace, perpetual
      attributes: full, newton on
      pair build: full/bin
      stencil: full/bin/3d
      bin: standard
Per MPI rank memory allocation (min/avg/max) = 5.921 | 6.012 | 8.081 Mbytes
   Step          Temp          E_pair         E_mol          TotEng         Press     
    880000   305.55613     -1809872.3      0             -1809412.6     -1406.6503    
    881000   296.60954     -1809869.1      0             -1809422.8     -1411.4472    
    882000   300.48646     -1809863        0             -1809410.9     -1412.2511    
    883000   299.06827     -1809865.5      0             -1809415.5     -1423.096     
    884000   299.39387     -1809865.7      0             -1809415.3     -1430.6284    
    885000   299.51922     -1809861.4      0             -1809410.8     -1422.0056    
    886000   299.77611     -1809870.3      0             -1809419.3     -1428.5666    
    887000   297.73608     -1809862.5      0             -1809414.5     -1394.7018    
    888000   300.13837     -1809864.3      0             -1809412.8     -1413.6572    
    889000   300.7189      -1809867.6      0             -1809415.2     -1413.7034    
    890000   301.53213     -1809875        0             -1809421.4     -1417.5847    
    891000   301.79065     -1809864.8      0             -1809410.8     -1430.0906    
    892000   303.66161     -1809867.2      0             -1809410.4     -1424.9221    
    893000   300.71895     -1809873.5      0             -1809421.1     -1414.5376    
    894000   300.51668     -1809873.8      0             -1809421.7     -1427.5237    
    895000   301.93505     -1809864.4      0             -1809410.2     -1410.0957    
    896000   295.47913     -1809867.7      0             -1809423.2     -1426.5204    
    897000   299.66991     -1809867        0             -1809416.2     -1423.0248    
    898000   301.41936     -1809868.9      0             -1809415.4     -1404.483     
    899000   300.38105     -1809873        0             -1809421.1     -1427.0181    
    900000   299.2851      -1809869.5      0             -1809419.2     -1419.4477    
    901000   300.82678     -1809866.3      0             -1809413.8     -1431.9491    
    902000   295.55436     -1809866.3      0             -1809421.6     -1436.2016    
    903000   302.57163     -1809866.7      0             -1809411.5     -1401.7934    
    904000   299.30497     -1809868.9      0             -1809418.6     -1414.7738    
    905000   303.00009     -1809864.8      0             -1809408.9     -1423.1441    
    906000   299.72067     -1809872.2      0             -1809421.3     -1385.8337    
    907000   299.36941     -1809869.5      0             -1809419.1     -1404.2033    
    908000   298.86172     -1809862.1      0             -1809412.5     -1414.5466    
    909000   303.67593     -1809870.4      0             -1809413.5     -1405.7787    
    910000   301.01324     -1809867.4      0             -1809414.6     -1396.0565    
    911000   300.48935     -1809869.4      0             -1809417.3     -1395.3762    
    912000   302.93787     -1809870.5      0             -1809414.8     -1399.1152    
    913000   300.66718     -1809869.2      0             -1809416.8     -1407.8506    
    914000   303.31674     -1809871.7      0             -1809415.4     -1402.5544    
    915000   297.17501     -1809868        0             -1809420.9     -1411.6115    
    916000   298.37835     -1809865.9      0             -1809417       -1418.5636    
    917000   304.86564     -1809867.3      0             -1809408.6     -1400.7962    
    918000   301.11739     -1809866.6      0             -1809413.6     -1429.6601    
    919000   299.42418     -1809871.1      0             -1809420.6     -1391.8282    
    920000   298.96787     -1809867.6      0             -1809417.8     -1411.0253    
    921000   301.95016     -1809860.9      0             -1809406.6     -1408.5399    
    922000   300.38099     -1809868.4      0             -1809416.5     -1403.5394    
    923000   300.89739     -1809863.8      0             -1809411.1     -1421.2249    
    924000   299.93523     -1809872.6      0             -1809421.4     -1420.3342    
    925000   301.69211     -1809865.6      0             -1809411.7     -1397.5365    
    926000   300.63124     -1809868.5      0             -1809416.2     -1426.2994    
    927000   302.25789     -1809867.1      0             -1809412.3     -1408.3366    
    928000   303.6888      -1809869.6      0             -1809412.7     -1421.0279    
    929000   301.44647     -1809866.9      0             -1809413.4     -1421.1206    
    930000   302.27987     -1809869.2      0             -1809414.4     -1420.6889    
    931000   293.80363     -1809869.3      0             -1809427.3     -1411.6582    
    932000   301.79963     -1809868.2      0             -1809414.2     -1403.9282    
    933000   297.83286     -1809869.8      0             -1809421.7     -1412.6243    
    934000   297.97566     -1809873.6      0             -1809425.3     -1422.6146    
    935000   299.50942     -1809860.8      0             -1809410.2     -1413.4405    
    936000   299.29583     -1809873        0             -1809422.7     -1412.1854    
    937000   298.76447     -1809867.1      0             -1809417.7     -1427.4481    
    938000   302.3087      -1809865.4      0             -1809410.6     -1399.6732    
    939000   304.10631     -1809860.2      0             -1809402.7     -1410.0627    
    940000   301.00451     -1809867.7      0             -1809414.8     -1402.2226    
    941000   305.04176     -1809865.9      0             -1809407       -1405.7224    
    942000   297.41732     -1809867.5      0             -1809420.1     -1411.1502    
    943000   297.44069     -1809863.3      0             -1809415.8     -1403.3631    
    944000   301.11402     -1809864.9      0             -1809411.9     -1403.4439    
    945000   300.27293     -1809869.9      0             -1809418.1     -1394.3459    
    946000   299.58626     -1809872.2      0             -1809421.5     -1395.5157    
    947000   295.55315     -1809868.5      0             -1809423.8     -1410.5412    
    948000   300.86046     -1809870        0             -1809417.4     -1413.5042    
    949000   298.18474     -1809867.7      0             -1809419.1     -1394.2061    
    950000   298.66622     -1809861.2      0             -1809411.9     -1414.1639    
    951000   305.73023     -1809868.6      0             -1809408.7     -1410.6538    
    952000   299.45384     -1809873.9      0             -1809423.3     -1429.7341    
    953000   303.84586     -1809868.6      0             -1809411.4     -1417.2202    
    954000   303.06719     -1809875        0             -1809419.1     -1406.3014    
    955000   297.25043     -1809864.1      0             -1809416.9     -1424.9848    
    956000   300.55651     -1809868.3      0             -1809416.1     -1406.852     
    957000   296.79765     -1809874.6      0             -1809428       -1390.8576    
    958000   300.62369     -1809867.4      0             -1809415.1     -1413.0429    
    959000   301.73775     -1809869        0             -1809415.1     -1411.5942    
    960000   296.39617     -1809869.3      0             -1809423.3     -1401.9903    
Loop time of 57556.7 on 1024 procs for 80000 steps with 11640 atoms

Performance: 0.120 ns/day, 199.850 hours/ns, 1.390 timesteps/s, 16.179 katom-step/s
100.0% CPU use with 1024 MPI tasks x 1 OpenMP threads

MPI task timing breakdown:
Section |  min time  |  avg time  |  max time  |%varavg| %total
---------------------------------------------------------------
Pair    | 142.7      | 5314.8     | 21705      |6601.6 |  9.23
Bond    | 0.003254   | 0.0168     | 0.59887    |  44.8 |  0.00
Neigh   | 0.093579   | 0.3343     | 1.5612     |  42.4 |  0.00
Comm    | 1.7727     | 1790.4     | 6928.8     |3838.2 |  3.11
Output  | 7.8247     | 12.353     | 17.481     |  82.8 |  0.02
Modify  | 32345      | 50426      | 57387      |2680.2 | 87.61
Other   |            | 12.42      |            |       |  0.02

Nlocal:        11.3672 ave         317 max           0 min
Histogram: 882 2 118 8 8 2 0 2 0 2
Nghost:        97.8428 ave        1646 max           0 min
Histogram: 762 155 74 7 7 8 5 4 0 2
Neighs:              0 ave           0 max           0 min
Histogram: 1024 0 0 0 0 0 0 0 0 0
FullNghs:      1179.14 ave       59995 max           0 min
Histogram: 995 7 5 10 1 2 2 0 0 2

Total # of neighbors = 1207436
Ave neighs/atom = 103.73162
Ave special neighs/atom = 0
Neighbor list builds = 3692
Dangerous builds = 0

write_restart nvt_prod.restart.*
System init for write_restart ...
write_data nvt_prod_final.lammps-data
System init for write_data ...

Total wall time: 15:59:40
