LAMMPS data file via write_data, version 4 Feb 2025, timestep = 960000, units = metal

11640 atoms
3 atom types

0 155.54807999999997 xlo xhi
0 149.67620976654908 ylo yhi
0 151.07316997686289 zlo zhi

Masses

1 12.01099999691024
2 1.007999999740698
3 15.99899999588435

Atoms # full

3432 0 1 0 5.251021391001287 17.33896663122575 89.16287623372196 -7 -5 10
3665 0 1 0 5.9514721390383 16.08000646267943 89.07292337535881 -7 -5 10
3401 0 1 0 1.6732579488135702 1.05609128927257 88.69900741472046 -7 -5 10
3431 0 1 0 3.7844149409374137 17.320461495289138 89.09617049775474 -7 -5 10
3168 0 1 0 0.9160072311662528 2.2781386785716156 88.58565567926458 -7 -5 10
3192 0 1 0 0.8854394867023887 17.300827775105752 88.99561448380658 -7 -5 10
3402 0 1 0 3.0955619814887543 1.0313987394031223 88.59105960540016 -7 -5 10
3405 0 1 0 1.655999946005339 3.503292561929265 88.57211763032778 -7 -5 10
3406 0 1 0 3.11020019098483 3.4944420928932782 88.5285068090019 -7 -5 10
3661 0 1 0 5.9575986569450805 13.642111942284625 89.04904618331317 -7 -5 10
3407 0 1 0 3.823882094228537 2.296045902803673 88.57508969489022 -7 -5 10
3408 0 1 0 5.230151375684752 2.2840728217005255 88.56463563086297 -7 -5 10
3641 0 1 0 5.990637352809614 1.0195507379143673 88.58578706713404 -7 -5 10
3642 0 1 0 7.406821212657733 1.0799476688385612 88.69555373900315 -7 -5 10
3646 0 1 0 7.438418881971018 3.5641299841719465 88.58023462567095 -7 -5 10
3645 0 1 0 6.002691108722991 3.527145024673729 88.63267032341176 -7 -5 10
3422 0 1 0 3.118878499638516 13.55885637430881 88.79324748514405 -7 -5 10
3647 0 1 0 8.142237739154123 2.318363002106734 88.64309464875599 -7 -5 10
3662 0 1 0 7.399601796999863 13.59685314593141 88.97670081118329 -7 -5 10
3172 0 1 0 1.0216293361543214 4.7591090583585665 88.64960227160012 -7 -5 10
3409 0 1 0 1.7198176666833764 6.034964042544616 88.65643026138997 -7 -5 10
3666 0 1 0 7.392985898402895 16.04618916259609 89.04192153929007 -7 -5 10
3176 0 1 0 0.9808678370749452 7.291611310117358 88.71586295240554 -7 -5 10
3410 0 1 0 3.1444445271069106 6.022122065780354 88.67649766032972 -7 -5 10
3415 0 1 0 3.8440636473484093 7.3338376230674545 88.73798310182985 -7 -5 10
3413 0 1 0 1.6425539167292231 8.561466271607514 88.71863408698961 -7 -5 10
3650 0 1 0 7.432514515494931 6.072474791966911 88.8471927512487 -7 -5 10
3649 0 1 0 6.009463053541308 6.05436273263753 88.88065974161644 -7 -5 10
3411 0 1 0 3.8213552491466167 4.784204332903142 88.68264605838343 -7 -5 10
3412 0 1 0 5.300793372289777 4.7750705360215315 88.65819998400121 -7 -5 10
3416 0 1 0 5.329256214546164 7.311501714841368 88.85096535666146 -7 -5 10
3653 0 1 0 6.03387098438633 8.565957716888423 88.92602701184008 -7 -5 10
3654 0 1 0 7.457875255372339 8.585857973681808 88.98950113311626 -7 -5 10
3655 0 1 0 8.129759997250623 7.322035790528306 88.93951925590524 -7 -5 10
3651 0 1 0 8.134753844163857 4.804552025602782 88.73497631217519 -7 -5 10
3428 0 1 0 5.244103701421066 14.826293949067146 88.98681839066379 -7 -5 10
3180 0 1 0 0.9468445939914388 9.802180959621499 88.77334853859666 -7 -5 10
3417 0 1 0 1.6810878920915033 11.029221260197971 88.70710164071507 -7 -5 10
3671 0 1 0 8.12965912302322 17.318638940945636 89.08202890005698 -7 -5 10
3184 0 1 0 0.9219046046311262 12.271318665660747 88.7250737281148 -7 -5 10
3423 0 1 0 3.8409469780159182 12.362843823061164 88.75330519187173 -7 -5 10
3418 0 1 0 3.1042398345257274 11.087293739187443 88.7525073814506 -7 -5 10
3414 0 1 0 3.1442956603197345 8.606059385761132 88.6633655128029 -7 -5 10
3419 0 1 0 3.8507844543634624 9.831272984342743 88.73623428853293 -7 -5 10
3659 0 1 0 8.122562019993799 9.86471023848972 89.02174521046786 -7 -5 10
3420 0 1 0 5.311393843206069 9.861165627728065 88.91724132863826 -7 -5 10
3657 0 1 0 5.988296005561827 11.103031420687303 89.03770004821251 -7 -5 10
3424 0 1 0 5.238612685177291 12.340467664954296 88.90042425093365 -7 -5 10
3658 0 1 0 7.396312807801642 11.105699253321154 89.04322044733583 -7 -5 10
3663 0 1 0 8.170620893011554 12.321449075179173 89.00077551735458 -7 -5 10
3427 0 1 0 3.789439597107166 14.813035569649331 88.92280369986166 -7 -5 10
3188 0 1 0 0.8871846325086103 14.795357815464687 88.89353942969765 -7 -5 10
3667 0 1 0 8.113125504989252 14.80796788117701 88.91553306814536 -7 -5 10
3421 0 1 0 1.6378501565157972 13.540240416232772 88.73582987847257 -7 -5 10
3425 0 1 0 1.6189374045810512 16.06605118937441 88.96197395944452 -7 -5 10
3426 0 1 0 3.0875890416731377 16.048486497583692 89.05060896087534 -7 -5 10
3670 0 1 0 7.381723812476349 18.574354133649138 89.19280345680684 -7 -5 10
3430 0 1 0 3.097107392949949 18.600826366256097 89.03437275249243 -7 -5 10
3669 0 1 0 5.97242739085527 18.590535276224838 89.1352382725067 -7 -5 10
3429 0 1 0 1.6617541649219973 18.55502576179881 88.98221391581683 -7 -5 10
3668 0 1 0 9.55342958821591 14.79036854865698 88.96471475527976 -7 -5 10
3648 0 1 0 9.580245867629158 2.25365054531664 88.6913494076347 -7 -5 10
3672 0 1 0 9.572245710110906 17.286933591150074 89.04219100981486 -7 -5 10
3660 0 1 0 9.594010294105368 9.855094922499779 89.00461456093248 -7 -5 10
3664 0 1 0 9.594265523846827 12.297418921075092 89.04504046950089 -7 -5 10
3652 0 1 0 9.55029075131235 4.811463899707221 88.79126818486837 -7 -5 10
3656 0 1 0 9.590400349916566 7.323466535227358 88.94391681126791 -7 -5 10
3693 0 1 0 6.099992777602905 33.512023841654745 89.17243892631446 -7 -5 10
3699 0 1 0 8.202518164661631 34.73677307511069 89.1215931774689 -7 -5 10
3196 0 1 0 0.9211667230720049 19.814364705924277 89.02606072071197 -7 -5 10
3433 0 1 0 1.669811923973242 21.04779323487043 89.05494246172799 -7 -5 10
3703 0 1 0 8.233789180759945 37.27491231208044 89.07478616393334 -7 -5 10
3434 0 1 0 3.106182206667549 21.064580267404033 89.00984975789105 -7 -5 10
3698 0 1 0 7.529591708596431 36.00306873899724 89.05978722139416 -7 -5 10
3200 0 1 0 0.9109668643011587 22.249395877591304 89.02208279783538 -7 -5 10
3679 0 1 0 8.137225905649345 22.265530591325263 89.04579424054269 -7 -5 10
3435 0 1 0 3.823430850255172 19.82044945733606 89.00701285615945 -7 -5 10
3436 0 1 0 5.226617745623399 19.798103118292453 89.11732865308275 -7 -5 10
3673 0 1 0 5.987471738393268 21.044639571658916 89.00000630390205 -7 -5 10
3224 0 1 0 1.0040667914727455 37.25939664732273 89.34125858320262 -7 -5 10
3674 0 1 0 7.427201652875103 21.014436493808372 89.00035543178915 -7 -5 10
3456 0 1 0 5.323686846768568 32.23085669662874 89.22990072549376 -7 -5 10
3439 0 1 0 3.8219809962339335 22.31270493612202 89.07547119415605 -7 -5 10
3440 0 1 0 5.3097461728911055 22.270458805734236 88.96950818661843 -7 -5 10
3675 0 1 0 8.139446847406994 19.746385585208284 89.01180684281118 -7 -5 10
3695 0 1 0 8.189946417454369 32.211529995945575 89.19732567086886 -7 -5 10
3437 0 1 0 1.5997795826428016 23.52712147168692 89.11080208416688 -7 -5 10
3204 0 1 0 0.9077782318123965 24.788007416686856 89.12120969905402 -7 -5 10
3441 0 1 0 1.6580847827313643 26.02786921682894 89.14665983024287 -7 -5 10
3438 0 1 0 3.0440308362581883 23.551653348645367 89.1228999493614 -7 -5 10
3442 0 1 0 3.14130207786475 26.02920817832753 89.16472385789392 -7 -5 10
3694 0 1 0 7.507898337850851 33.50591516593262 89.16788754030478 -7 -5 10
3208 0 1 0 0.9401796202051568 27.285059890465455 89.25970300635551 -7 -5 10
3683 0 1 0 8.130271040062297 24.794951325035743 89.2718719330495 -7 -5 10
3443 0 1 0 3.8262445126536995 24.78524874699171 89.03355504355133 -7 -5 10
3444 0 1 0 5.229957012071141 24.772842960921686 89.0755940013314 -7 -5 10
3677 0 1 0 5.986211785141013 23.506029164955134 89.03124138206746 -7 -5 10
3681 0 1 0 5.9918925609888225 25.974683199068753 89.18188192168058 -7 -5 10
3678 0 1 0 7.44983334298234 23.545363581185367 89.13777360145673 -7 -5 10
3682 0 1 0 7.427555382101622 26.02467916151613 89.27815423796116 -7 -5 10
3687 0 1 0 8.15934107144993 27.265553473432764 89.45794039927672 -7 -5 10
3447 0 1 0 3.867288551252654 27.27270032862607 89.27810592993673 -7 -5 10
3448 0 1 0 5.301805046577437 27.24630771271854 89.30459342293517 -7 -5 10
3455 0 1 0 3.877571615082664 32.23250093738301 89.31039535812398 -7 -5 10
3212 0 1 0 0.940521647323649 29.742837115030266 89.46216097293176 -7 -5 10
3445 0 1 0 1.670237491023171 28.511444494280916 89.35768359043887 -7 -5 10
3449 0 1 0 1.6852184181526422 31.01700297140031 89.40612299907058 -7 -5 10
3446 0 1 0 3.1164575759677424 28.534877964277953 89.24643186354758 -7 -5 10
3450 0 1 0 3.1312845476895372 30.988578895071335 89.33656161162136 -7 -5 10
3691 0 1 0 8.188769361038894 29.75313464904032 89.40555819696168 -7 -5 10
3689 0 1 0 6.00003991323363 30.99841712773324 89.23904660704135 -7 -5 10
3690 0 1 0 7.480044767431873 31.011781073714033 89.37602031573124 -7 -5 10
3685 0 1 0 6.009772991456569 28.522909831603247 89.3111649599541 -7 -5 10
3451 0 1 0 3.8611354931864965 29.76091906379918 89.2851685861557 -7 -5 10
3452 0 1 0 5.26787636072361 29.76114584158661 89.27089004391048 -7 -5 10
3686 0 1 0 7.462322213818103 28.538143953325253 89.43018896605716 -7 -5 10
3457 0 1 0 1.7423106755468634 36.01735292753436 89.3106168376524 -7 -5 10
3454 0 1 0 3.1771950715942396 33.51075417128678 89.3911604333514 -7 -5 10
3216 0 1 0 1.0350778952738344 32.25258178054144 89.45620602230719 -7 -5 10
3459 0 1 0 3.916418831663841 34.73603599744827 89.28957996429769 -7 -5 10
3220 0 1 0 1.07043321852523 34.765257448904656 89.49184278969683 -7 -5 10
3697 0 1 0 6.060496699420284 36.010031923750155 89.08143521041464 -7 -5 10
3453 0 1 0 1.7151223593549032 33.494942186331336 89.403570166782 -7 -5 10
3458 0 1 0 3.2159727920952035 36.015569237155994 89.32935115024519 -7 -5 10
3460 0 1 0 5.349001036946444 34.756947000561745 89.24138646835065 -7 -5 10
3464 0 1 0 5.31054903830076 37.20513879952211 89.14296661108992 -7 -5 10
3463 0 1 0 3.8458623499027347 37.27974539440748 89.1790156333757 -7 -5 10
3684 0 1 0 9.597318922047757 24.771965277635466 89.27175923075501 -7 -5 10
3688 0 1 0 9.603903246806409 27.256826205451993 89.43316920621785 -7 -5 10
3692 0 1 0 9.610585119299092 29.77114059115607 89.3998345828551 -7 -5 10
3696 0 1 0 9.662951634709591 32.244338094500435 89.22496826840728 -7 -5 10
3676 0 1 0 9.575638359629352 19.81049768073628 89.02096319100326 -7 -5 10
3700 0 1 0 9.685908721597022 34.75426088306321 89.07290505449777 -7 -5 10
3704 0 1 0 9.622926018390682 37.240987209562455 89.05937401792661 -7 -5 10
3680 0 1 0 9.564452709240031 22.304263280938773 89.07530020529288 -7 -5 10
3725 0 1 0 5.98425255543887 53.52012377151119 89.1498299552536 -7 -5 10
3729 0 1 0 6.027493652945547 55.96861202991087 89.28656555186713 -7 -5 10
3461 0 1 0 1.6842571433468185 38.45118990277015 89.2330150313735 -7 -5 10
3727 0 1 0 8.140292180053104 52.27770881446855 89.14402809569528 -7 -5 10
3228 0 1 0 0.9665043093804705 39.69182654876546 89.27823637341749 -7 -5 10
3722 0 1 0 7.39106680639744 50.99303317436966 89.15098247181314 -7 -5 10
3462 0 1 0 3.1165222644361714 38.472623656874724 89.17832850145777 -7 -5 10
3465 0 1 0 1.7026442933915538 40.918773303638204 89.05716437140676 -7 -5 10
3466 0 1 0 3.123998694180025 40.973642067661515 89.08992145372305 -7 -5 10
3490 0 1 0 3.0630784555809782 55.97704155680482 89.139895040799 -7 -5 10
3701 0 1 0 6.093136886251519 38.45503359070597 89.08936883536342 -7 -5 10
3467 0 1 0 3.858817582225727 39.71984329203474 89.07706309294788 -7 -5 10
3468 0 1 0 5.332504929642199 39.66377963505283 89.07272865012236 -7 -5 10
3702 0 1 0 7.511140566146785 38.45080048791287 89.05713007099563 -7 -5 10
3491 0 1 0 3.7939463050139235 54.753866250568024 89.17100857537919 -7 -5 10
3707 0 1 0 8.159706345735543 39.761532996957605 88.95034819879143 -7 -5 10
3705 0 1 0 6.048352633287745 40.94492933219991 89.0320990822108 -7 -5 10
3706 0 1 0 7.482496993685284 41.012463186194665 88.87438057857986 -7 -5 10
3487 0 1 0 3.883556301751054 52.27886910695796 89.0390835997324 -7 -5 10
3232 0 1 0 0.973105892935905 42.20318816635018 88.95303089044364 -7 -5 10
3469 0 1 0 1.6776914116329884 43.450302420508 88.7650116600261 -7 -5 10
3488 0 1 0 5.301758322840065 52.267709854217244 89.0349586798745 -7 -5 10
3236 0 1 0 0.9739904969582198 44.69678754018754 88.79044096749291 -7 -5 10
3470 0 1 0 3.130705315312374 43.44486466324962 88.76272341741243 -7 -5 10
3473 0 1 0 1.659909462610221 46.00087734630051 88.7986633939077 -7 -5 10
3474 0 1 0 3.115093264679073 46.035965703237935 88.81861339890679 -7 -5 10
3471 0 1 0 3.8451557764003743 42.2201889958273 88.88736979700938 -7 -5 10
3472 0 1 0 5.282753341450969 42.17020542518108 88.96015652947702 -7 -5 10
3709 0 1 0 5.949358515572158 43.49527202094848 88.85271399976307 -7 -5 10
3475 0 1 0 3.827341054326513 44.74978515405754 88.79151938641714 -7 -5 10
3476 0 1 0 5.2715594168634325 44.727680079252 88.74587082269089 -7 -5 10
3710 0 1 0 7.40705983840182 43.50617473836739 88.77294574237867 -7 -5 10
3711 0 1 0 8.17698710116795 42.26804822117423 88.81453147683676 -7 -5 10
3715 0 1 0 8.131339944870364 44.76518802945911 88.8700976778159 -7 -5 10
3713 0 1 0 5.976561487820062 45.96373273166688 88.86669084118978 -7 -5 10
3714 0 1 0 7.383186540176596 45.98523867807557 88.91431955232754 -7 -5 10
3721 0 1 0 5.970646169658848 51.010455601647934 89.01325607876008 -7 -5 10
3477 0 1 0 1.6976702774167922 48.48595772343031 88.93017705359873 -7 -5 10
3240 0 1 0 0.963193897082096 47.2705178459139 88.89763431833366 -7 -5 10
3492 0 1 0 5.2639592189451765 54.75338662822148 89.1616657728555 -7 -5 10
3244 0 1 0 0.9711768716282282 49.768667962164855 89.05064961125196 -7 -5 10
3478 0 1 0 3.1546382635986743 48.490304827721744 88.81533733686727 -7 -5 10
3719 0 1 0 8.103173706230905 47.25069757069675 88.90589916964865 -7 -5 10
3484 0 1 0 5.225373611537114 49.79169980594426 88.98706409786124 -7 -5 10
3717 0 1 0 5.966040895660695 48.536753077884235 88.8827686248576 -7 -5 10
3479 0 1 0 3.8817683094817195 47.23646514196723 88.78193316265643 -7 -5 10
3480 0 1 0 5.334194260769033 47.22469457958456 88.7878367503004 -7 -5 10
3483 0 1 0 3.821673953648173 49.764945814252954 89.00447234982114 -7 -5 10
3718 0 1 0 7.4302319236021015 48.55359535126981 88.91440077852934 -7 -5 10
3723 0 1 0 8.14921595246448 49.78455568209016 89.06806536095422 -7 -5 10
3731 0 1 0 8.141859326542454 54.723301109387165 89.20522073721682 -7 -5 10
3248 0 1 0 0.9722398070035768 52.266704615236335 89.10924903966563 -7 -5 10
3481 0 1 0 1.711862091037673 50.99824511049764 89.10405780737322 -7 -5 10
3726 0 1 0 7.403942917235019 53.52625583032138 89.07305127041752 -7 -5 10
3485 0 1 0 1.6547519445454166 53.47816245156712 89.20624619059774 -7 -5 10
3482 0 1 0 3.139100572418817 51.017258578208434 88.98569674746285 -7 -5 10
3486 0 1 0 3.1165585892274508 53.534015383668844 89.08761226900832 -7 -5 10
3252 0 1 0 0.9710746011517788 54.73011228225567 89.17175502306375 -7 -5 10
3730 0 1 0 7.468991975542456 55.94361016174503 89.25876622588775 -7 -5 10
3489 0 1 0 1.6130800362338913 56.009515382019465 89.1126690156964 -7 -5 10
3708 0 1 0 9.578007847740915 39.757983941942406 88.99873151995304 -7 -5 10
3724 0 1 0 9.597654764549285 49.791478275714624 89.13999957612474 -7 -5 10
3732 0 1 0 9.602307593136034 54.74978925175952 89.10734171276826 -7 -5 10
3728 0 1 0 9.58915219969349 52.250000379860346 89.18906241831701 -7 -5 10
3712 0 1 0 9.63679558965844 42.25742326879145 88.81246683400545 -7 -5 10
3716 0 1 0 9.567565074242308 44.77440143931766 88.99225266577734 -7 -5 10
3720 0 1 0 9.567930032583227 47.28101597632897 89.03198893530531 -7 -5 10
3524 0 1 0 5.231852462361422 74.75820911557884 89.23520650897424 -7 -5 10
3759 0 1 0 8.132614997771304 72.20118157275927 89.07327397816337 -7 -5 10
3256 0 1 0 0.8984774566567694 57.250029757058805 89.10655108503184 -7 -5 10
3493 0 1 0 1.651073296337433 58.493746309243505 89.10096137969019 -7 -5 10
3284 0 1 0 0.9033631992055268 74.70856942457148 89.10996151583515 -7 -5 10
3494 0 1 0 3.115860270752201 58.47146840673227 89.14187461538768 -7 -5 10
3757 0 1 0 5.960377046842347 73.46435244439647 89.18875934399323 -7 -5 10
3260 0 1 0 0.9323356429813865 59.73657188333172 88.99155517474152 -7 -5 10
3733 0 1 0 5.974434861768003 58.45517186036145 89.10184988933668 -7 -5 10
3495 0 1 0 3.7874271325263185 57.1898191261489 89.09101351680025 -7 -5 10
3496 0 1 0 5.266720830074009 57.20441176797913 89.14003279362989 -7 -5 10
3518 0 1 0 3.0999925384747415 73.4317361136877 89.20217460288043 -7 -5 10
3734 0 1 0 7.446392511014358 58.45035005808734 89.13745534119859 -7 -5 10
3754 0 1 0 7.389374692597953 70.96776791138299 89.20177663971111 -7 -5 10
3739 0 1 0 8.135047839667102 59.74400769596016 89.19877778551395 -7 -5 10
3500 0 1 0 5.262177710599278 59.76030068090229 89.00368397427904 -7 -5 10
3499 0 1 0 3.8245709794101757 59.71669521368383 89.06989898922433 -7 -5 10
3735 0 1 0 8.193597534131309 57.23274588679137 89.20627863159275 -7 -5 10
3758 0 1 0 7.44494279771288 73.42460099300989 89.18821447753955 -7 -5 10
3497 0 1 0 1.6973741042690311 60.970090821250416 88.97144933513432 -7 -5 10
3264 0 1 0 0.9253467138442739 62.24810640475533 88.98161977341883 -7 -5 10
3501 0 1 0 1.5963995464487353 63.50529274877068 88.95000257875476 -7 -5 10
3498 0 1 0 3.097062701157897 60.94614715972711 88.97082605810321 -7 -5 10
3502 0 1 0 3.0786975896528137 63.414907292924646 88.97889805675358 -7 -5 10
3516 0 1 0 5.232072180030642 69.7203702861377 89.1450687114372 -7 -5 10
3268 0 1 0 0.9296376041994447 64.70343819132819 89.05298910922197 -7 -5 10
3747 0 1 0 8.117187608891482 64.68994684259799 89.0358727943642 -7 -5 10
3737 0 1 0 5.980987860513344 60.95876747512972 89.02302273099109 -7 -5 10
3503 0 1 0 3.8228646524135264 62.194648118724096 88.97878621580755 -7 -5 10
3504 0 1 0 5.265719790999983 62.18653597992061 88.96130140855516 -7 -5 10
3741 0 1 0 5.942923635524919 63.44796438043628 88.99402471670845 -7 -5 10
3738 0 1 0 7.384937510402068 60.98736628202913 89.08264797000885 -7 -5 10
3742 0 1 0 7.389605935297399 63.523416070345554 89.0674457425365 -7 -5 10
3743 0 1 0 8.11714466576202 62.27269962667488 89.20357353790628 -7 -5 10
3507 0 1 0 3.780859765163911 64.7087665137345 88.98397432264453 -7 -5 10
3508 0 1 0 5.235537658111381 64.68852196468333 88.97826186745647 -7 -5 10
3509 0 1 0 1.6460027786828388 68.47482330047349 89.18483099434883 -7 -5 10
3520 0 1 0 5.234253268415125 72.22090856884626 89.15876889979235 -7 -5 10
3272 0 1 0 0.8766728778336967 67.24076688545111 89.03978038581334 -7 -5 10
3505 0 1 0 1.6389746159207552 65.995132209755 89.00386853399661 -7 -5 10
3506 0 1 0 3.0986359182411385 65.95115752362156 88.94914394286165 -7 -5 10
3511 0 1 0 3.8199513684824966 67.20109888350507 89.07741342065462 -7 -5 10
3510 0 1 0 3.073946248832791 68.47189682604306 89.20333368907558 -7 -5 10
3745 0 1 0 5.972857610992287 65.93058828575688 88.95861296753331 -7 -5 10
3512 0 1 0 5.249569247457186 67.20862387222957 89.05536342240913 -7 -5 10
3749 0 1 0 5.978860599395016 68.45712736552888 89.08665891831025 -7 -5 10
3746 0 1 0 7.42992865131857 65.98203101939973 88.9561116398968 -7 -5 10
3750 0 1 0 7.391683476982266 68.47439243274485 89.11611509039193 -7 -5 10
3751 0 1 0 8.120301406451336 67.2229326630113 88.96665101571837 -7 -5 10
3514 0 1 0 3.0894069095795285 70.93166266338505 89.20394788233911 -7 -5 10
3515 0 1 0 3.8307022975263876 69.67392115814708 89.13267469567623 -7 -5 10
3276 0 1 0 0.9686851347159929 69.74390838034203 89.11268426891033 -7 -5 10
3513 0 1 0 1.6657176287998994 70.99741717209423 89.05160780597087 -7 -5 10
3755 0 1 0 8.103067724372968 69.74204832352618 89.11276098730158 -7 -5 10
3280 0 1 0 0.952390083602651 72.23721261392885 89.11759321935124 -7 -5 10
3753 0 1 0 5.964744088763468 70.97791230887948 89.21049909615344 -7 -5 10
3517 0 1 0 1.6505561022461042 73.45348294397016 89.1317357888622 -7 -5 10
3519 0 1 0 3.7744750791390205 72.17772346456906 89.21793962901967 -7 -5 10
3523 0 1 0 3.7899759543366316 74.69386139364435 89.15902070398917 -7 -5 10
3763 0 1 0 8.189912831157415 74.70257074771179 89.15231523634122 -7 -5 10
3760 0 1 0 9.64987817840046 72.18965943145406 89.04611594910915 -7 -5 10
3736 0 1 0 9.629756599314973 57.219677672349825 89.09447464492202 -7 -5 10
3748 0 1 0 9.568795778194414 64.63336819914653 89.06426715950187 -7 -5 10
3744 0 1 0 9.542994189856401 62.20523606922272 89.31402225558557 -7 -5 10
3756 0 1 0 9.574050770193384 69.70121798673642 89.16656888807628 -7 -5 10
3764 0 1 0 9.59208676824872 74.67112760795335 89.12505623005038 -7 -5 10
3740 0 1 0 9.545493239491824 59.74051409319418 89.23733078761327 -7 -5 10
3752 0 1 0 9.537618616164211 67.21497164572392 89.1030368708732 -7 -5 10
3546 0 1 0 3.1182162152285926 90.87019097929554 89.03425016347147 -7 -5 10
3521 0 1 0 1.614695870261332 75.93253193773937 89.06413324388971 -7 -5 10
3785 0 1 0 5.935683632497948 90.9024238601179 89.12232489377269 -7 -5 10
3288 0 1 0 0.912736175626063 77.2073477715733 89.17858579474259 -7 -5 10
3791 0 1 0 8.103565814978017 92.17114869166423 89.2305327848562 -7 -5 10
3522 0 1 0 3.0371233967952893 75.88985534007583 89.09154348567482 -7 -5 10
3527 0 1 0 3.760496306359309 77.21003927041325 89.08798210061826 -7 -5 10
3525 0 1 0 1.66973044639766 78.46744512137315 89.0671744668382 -7 -5 10
3526 0 1 0 3.1061723854303835 78.44307154150516 89.10065684848657 -7 -5 10
3782 0 1 0 7.408007031552005 88.39256909450346 89.12491319113659 -7 -5 10
3786 0 1 0 7.377152549981282 90.89552010281292 89.15580467226957 -7 -5 10
3528 0 1 0 5.178326158977194 77.23958228107139 89.17355844130515 -7 -5 10
3761 0 1 0 5.925296469828675 75.99734585159729 89.21521711419145 -7 -5 10
3762 0 1 0 7.399892668800972 75.9529527526324 89.28620108169541 -7 -5 10
3765 0 1 0 5.958511373509618 78.45784048766066 89.20699902229654 -7 -5 10
3766 0 1 0 7.43689705937806 78.44477823095069 89.39672619783529 -7 -5 10
3787 0 1 0 8.102844981061404 89.66255808857926 89.13968212048708 -7 -5 10
3767 0 1 0 8.144198633821786 77.17393666876939 89.38346436040158 -7 -5 10
3548 0 1 0 5.265697186763409 89.63113496772489 89.04778955690381 -7 -5 10
3292 0 1 0 0.9805170163397513 79.68435424623725 89.0230449047713 -7 -5 10
3529 0 1 0 1.6522731206525094 80.90601583234444 89.03841028160609 -7 -5 10
3551 0 1 0 3.7922022442292502 92.14495669711683 89.2465193246145 -7 -5 10
3296 0 1 0 0.9161630039565477 82.18797274676615 88.98537092530078 -7 -5 10
3531 0 1 0 3.797183769886034 79.69671404903089 89.18003762962971 -7 -5 10
3530 0 1 0 3.085278291348065 80.97944980427707 89.1541405107577 -7 -5 10
3535 0 1 0 3.8442484721105736 82.18048446830605 89.12996058821615 -7 -5 10
3533 0 1 0 1.656143041780444 83.41988208737425 89.04579102842222 -7 -5 10
3534 0 1 0 3.0759666919925936 83.40462045523668 89.07303042644098 -7 -5 10
3771 0 1 0 8.14424288638833 79.65009660905577 89.38437379692058 -7 -5 10
3532 0 1 0 5.218607157916382 79.70989330799826 89.26500882381043 -7 -5 10
3769 0 1 0 5.9598404577071245 80.9565444150689 89.25086977244638 -7 -5 10
3536 0 1 0 5.253425300918973 82.20739178248226 89.09839268173393 -7 -5 10
3770 0 1 0 7.418630253389688 80.91067016049993 89.28679729758974 -7 -5 10
3773 0 1 0 6.008313691940999 83.41919653944394 89.04555000099079 -7 -5 10
3774 0 1 0 7.437665070987286 83.4367677019664 89.06062927260749 -7 -5 10
3775 0 1 0 8.157696420375405 82.17039140411988 89.18635579912592 -7 -5 10
3552 0 1 0 5.19073620091995 92.09232568113784 89.13538456364152 -7 -5 10
3537 0 1 0 1.6263811259381278 85.89096403280108 89.09878298095126 -7 -5 10
3300 0 1 0 0.9138586944230502 84.65680462224633 89.1076056190789 -7 -5 10
3547 0 1 0 3.834429206057065 89.65180261816869 89.11762232903816 -7 -5 10
3304 0 1 0 0.9429854668702207 87.17674607059624 89.08544164223531 -7 -5 10
3538 0 1 0 3.0674283054472413 85.86167439589182 89.1407113217806 -7 -5 10
3779 0 1 0 8.149150539385099 84.68939757897658 89.01185678263948 -7 -5 10
3783 0 1 0 8.140063693070267 87.10372005769185 89.19960495141675 -7 -5 10
3543 0 1 0 3.805299580164046 87.11519948925704 89.08153994042898 -7 -5 10
3777 0 1 0 5.937613837354591 85.91003815217763 89.07190327180125 -7 -5 10
3539 0 1 0 3.811677050548606 84.68207808679286 89.08343895921675 -7 -5 10
3540 0 1 0 5.261046374660202 84.67828599413356 89.07899980913099 -7 -5 10
3544 0 1 0 5.231432583361787 87.15881022843801 89.0965694962605 -7 -5 10
3778 0 1 0 7.393814490427442 85.89954626584043 89.04717916353975 -7 -5 10
3312 0 1 0 0.943328503600473 92.1650235306316 89.05266825685109 -7 -5 10
3545 0 1 0 1.676068751344564 90.89080290367497 89.04882951938858 -7 -5 10
3781 0 1 0 5.985679781123718 88.36137768753845 89.05961493035082 -7 -5 10
3308 0 1 0 0.9488823075023493 89.66355605661974 89.14097398209319 -7 -5 10
3541 0 1 0 1.6307352445048258 88.41295143543877 89.12113958133884 -7 -5 10
3542 0 1 0 3.056597951298957 88.38699350763936 89.04627681792333 -7 -5 10
3549 0 1 0 1.651343779587326 93.40594318621508 89.06397649106934 -7 -5 10
3790 0 1 0 7.37649128782196 93.39065617904217 89.25121767052492 -7 -5 10
3550 0 1 0 3.090828089663056 93.43077331799279 89.16576235728807 -7 -5 10
3789 0 1 0 5.9260019799893175 93.3817515292124 89.21792774383962 -7 -5 10
3768 0 1 0 9.583185270109087 77.21864969545543 89.25603295737102 -7 -5 10
3792 0 1 0 9.54770016316819 92.1606362974808 89.42540290686603 -7 -5 10
3780 0 1 0 9.58014131606544 84.68126556089335 89.10725867482299 -7 -5 10
3788 0 1 0 9.56179024849227 89.6850540492216 89.17605676466874 -7 -5 10
3784 0 1 0 9.582305607055526 87.1351586638171 89.21741365162464 -7 -5 10
3776 0 1 0 9.571494140834796 82.17417180286061 89.31367191237736 -7 -5 10
3772 0 1 0 9.584086240828485 79.67401012389598 89.45657727480675 -7 -5 10
3819 0 1 0 8.15083186537314 109.62565826800562 89.3864195399661 -7 -5 10
3814 0 1 0 7.4003980491700725 108.34810702481798 89.40546047661527 -7 -5 10
3316 0 1 0 0.9663841381813256 94.65328587009347 89.00759698248307 -7 -5 10
3553 0 1 0 1.652305381360847 95.90481749914687 88.97984543019197 -7 -5 10
3817 0 1 0 6.016082295711275 110.78900300959327 89.41615221643158 -7 -5 10
3554 0 1 0 3.0665141507962272 95.91598682949407 89.09715187348405 -7 -5 10
3580 0 1 0 5.258919249781166 109.55790035364518 89.42897052494529 -7 -5 10
3320 0 1 0 0.8961070766295995 97.11532510023207 89.07987183354027 -7 -5 10
3795 0 1 0 8.107245260934082 94.6769565588222 89.3119462274868 -7 -5 10
3555 0 1 0 3.788282058600442 94.65814271278929 89.0823029208713 -7 -5 10
3556 0 1 0 5.201737505065425 94.60191200611364 89.2342821753817 -7 -5 10
3815 0 1 0 8.176756987398557 107.14592192778427 89.52573609172552 -7 -5 10
3577 0 1 0 1.6585797102945439 110.8403479080399 89.20340146846817 -7 -5 10
3793 0 1 0 5.927263912052791 95.85461686582704 89.24728491496869 -7 -5 10
3794 0 1 0 7.398389132921731 95.9026838696377 89.33586503662124 -7 -5 10
3559 0 1 0 3.7844709750621606 97.12828499678632 89.17474952248482 -7 -5 10
3560 0 1 0 5.2049230217039115 97.14556804476855 89.19392360047853 -7 -5 10
3799 0 1 0 8.142341394472322 97.16036566441481 89.37628602418182 -7 -5 10
3576 0 1 0 5.268486833519697 107.05625350867724 89.35312688022357 -7 -5 10
3557 0 1 0 1.5957245246772243 98.39331945646825 89.17830266311915 -7 -5 10
3324 0 1 0 0.8941613489211926 99.6092184158001 89.2252174943726 -7 -5 10
3561 0 1 0 1.6555066353446757 100.82556008450425 89.1940448168 -7 -5 10
3558 0 1 0 3.0155067544597007 98.33021166287584 89.09784397452685 -7 -5 10
3562 0 1 0 3.0521425789521963 100.86706458397568 89.25332534849099 -7 -5 10
3813 0 1 0 5.961325469966944 108.33957845937185 89.4101848361195 -7 -5 10
3328 0 1 0 0.9173052469407637 102.0571863497476 89.18102893081631 -7 -5 10
3807 0 1 0 8.16927114771794 102.07526678518981 89.48768512832955 -7 -5 10
3803 0 1 0 8.096023410763104 99.6333541296459 89.52033505804793 -7 -5 10
3797 0 1 0 5.946854925472687 98.35140401116547 89.3470485473698 -7 -5 10
3563 0 1 0 3.774637451233632 99.61717924838794 89.23843714754496 -7 -5 10
3564 0 1 0 5.248528319516021 99.59190347426511 89.38540552553526 -7 -5 10
3801 0 1 0 5.950471033277308 100.85221305483523 89.47433937029615 -7 -5 10
3798 0 1 0 7.378199738294178 98.39378436854439 89.50156139948757 -7 -5 10
3802 0 1 0 7.404822078487845 100.87355689768428 89.4649241444833 -7 -5 10
3567 0 1 0 3.7867781733460064 102.14091646288745 89.28078634068183 -7 -5 10
3568 0 1 0 5.264624748645804 102.15942421838348 89.36895605647254 -7 -5 10
3569 0 1 0 1.6737672343272916 105.83899690148463 89.26421025387772 -7 -5 10
3818 0 1 0 7.4358254363915295 110.8205969320519 89.43145657651779 -7 -5 10
3332 0 1 0 0.9088786573056664 104.5824203219876 89.20834980059182 -7 -5 10
3565 0 1 0 1.6196268030137158 103.33568703526448 89.10706060250241 -7 -5 10
3566 0 1 0 3.0850513663654158 103.38526314446861 89.21748742271814 -7 -5 10
3570 0 1 0 3.085435816892411 105.87216209170894 89.18016783669322 -7 -5 10
3811 0 1 0 8.097836223718856 104.58979615425758 89.489924041727 -7 -5 10
3806 0 1 0 7.4592570404679295 103.3352927318745 89.41613656302191 -7 -5 10
3810 0 1 0 7.429509278908327 105.85419704960897 89.49022557464275 -7 -5 10
3805 0 1 0 6.009430479525426 103.3527873966934 89.3681743887803 -7 -5 10
3809 0 1 0 5.977963759796435 105.85300545213052 89.41223797043462 -7 -5 10
3571 0 1 0 3.79123134275936 104.6051210457495 89.24362873822932 -7 -5 10
3572 0 1 0 5.260416684589044 104.59409831627876 89.32979060596085 -7 -5 10
3578 0 1 0 3.098855015400211 110.84908196940249 89.26074465264323 -7 -5 10
3573 0 1 0 1.6502422783975235 108.34935857235102 89.13554890285477 -7 -5 10
3336 0 1 0 0.9262088587900073 107.08066167884814 89.13800332405589 -7 -5 10
3340 0 1 0 0.95178673228994 109.58458379554664 89.14485586553222 -7 -5 10
3579 0 1 0 3.8345011196725087 109.56210343788125 89.38972761103332 -7 -5 10
3575 0 1 0 3.811743655851663 107.101997055688 89.39552005444013 -7 -5 10
3574 0 1 0 3.0636265077271876 108.35473189729129 89.32901151572186 -7 -5 10
3583 0 1 0 3.825850368934964 112.07899580526608 89.31932313272681 -7 -5 10
3584 0 1 0 5.288624878414288 112.03682303402911 89.41001369485402 -7 -5 10
3344 0 1 0 0.9378449649101677 112.07406311365732 89.28941926836085 -7 -5 10
3823 0 1 0 8.106173925035508 112.0809220098199 89.43557194344723 -7 -5 10
3800 0 1 0 9.589473972794124 97.12522071673604 89.49650466017245 -7 -5 10
3812 0 1 0 9.578392822390846 104.60066256483425 89.58523254963016 -7 -5 10