LAMMPS (4 Feb 2025)
OMP_NUM_THREADS environment is not set. Defaulting to 1 thread. (src/comm.cpp:99)
  using 1 OpenMP thread(s) per MPI task
# LAMMPS script for continuing NVT simulation

atom_modify map yes
newton      on

read_restart nvt_prod.restart.1120000
Reading restart file ...
  restart file = 4 Feb 2025, LAMMPS = 4 Feb 2025
  restoring atom style full from restart
  orthogonal box = (0 0 0) to (154.008 148.2 151.07609)
  16 by 8 by 12 MPI processor grid
  pair style symmetrix/mace stores no restart info
  17640 atoms
Finding 1-2 1-3 1-4 neighbors ...
  special bond factors lj:    0        0        0       
  special bond factors coul:  0        0        0       
     0 = max # of 1-2 neighbors
     0 = max # of 1-3 neighbors
     0 = max # of 1-4 neighbors
     1 = max # of special neighbors
  special bonds CPU = 5.009 seconds
  read_restart CPU = 5.242 seconds

pair_style  symmetrix/mace
pair_coeff  * * ../../../../00-common/models/ch2o-dens-inv_swa-1-6-8.json C H O
Loading MACE model from '../../../../00-common/models/ch2o-dens-inv_swa-1-6-8.json' ... success
  mapping LAMMPS type 1 (C) to MACE type 1
  mapping LAMMPS type 2 (H) to MACE type 0
  mapping LAMMPS type 3 (O) to MACE type 2

group graphene type 1
8640 atoms in group graphene
group H2O type 2 3
9000 atoms in group H2O

thermo 1000

######### NVT production for 80 ps #############

dump DUMP1 all atom 100 nvt_prod_14.lammpstrj
timestep 0.001
fix NVT1 graphene nvt temp 300 300 0.1
Resetting global fix info from restart file:
  fix style: nvt, fix ID: NVT1
fix NVT2 H2O nvt temp 300 300 0.1
Resetting global fix info from restart file:
  fix style: nvt, fix ID: NVT2
run 80000
All restart file global fix info was re-assigned
Neighbor list info ...
  update: every = 1 steps, delay = 0 steps, check = yes
  max neighbors/atom: 2000, page size: 100000
  master list distance cutoff = 8
  ghost atom cutoff = 8
  binsize = 4, bins = 39 38 38
  1 neighbor lists, perpetual/occasional/extra = 1 0 0
  (1) pair symmetrix/mace, perpetual
      attributes: full, newton on
      pair build: full/bin
      stencil: full/bin/3d
      bin: standard
Per MPI rank memory allocation (min/avg/max) = 5.946 | 6.215 | 8.358 Mbytes
   Step          Temp          E_pair         E_mol          TotEng         Press     
   1120000   299.07359     -2749194.9      0             -2748513       -8.1856974    
   1121000   300.972       -2749186.4      0             -2748500.1     -15.319417    
   1122000   299.82624     -2749191.7      0             -2748508.1     -4.5204485    
   1123000   297.02581     -2749193.1      0             -2748515.9     -38.921554    
   1124000   298.40528     -2749188.2      0             -2748507.9     -27.178938    
   1125000   299.92617     -2749199.8      0             -2748516       -2.9882945    
   1126000   299.89622     -2749191.3      0             -2748507.6      5.4127738    
   1127000   299.80893     -2749189        0             -2748505.4     -14.409694    
   1128000   297.29849     -2749185        0             -2748507.2     -52.388796    
   1129000   299.45394     -2749187.2      0             -2748504.4     -57.653642    
   1130000   300.10175     -2749188.7      0             -2748504.5     -1.6664484    
   1131000   296.9376      -2749193        0             -2748516       -4.6355833    
   1132000   297.47071     -2749189.3      0             -2748511       -46.331517    
   1133000   297.13975     -2749188.4      0             -2748510.9     -57.625033    
   1134000   302.64382     -2749179        0             -2748489       -16.7893      
   1135000   300.31044     -2749185.6      0             -2748500.9     -52.954956    
   1136000   298.73389     -2749186.8      0             -2748505.7     -22.714175    
   1137000   302.21031     -2749179.1      0             -2748490       -3.6879928    
   1138000   299.30771     -2749189.7      0             -2748507.3      5.2599222    
   1139000   298.31167     -2749181        0             -2748500.8     -22.234329    
   1140000   298.9627      -2749173.2      0             -2748491.6     -53.616651    
   1141000   299.76928     -2749187.9      0             -2748504.4     -59.38624     
   1142000   300.61896     -2749191        0             -2748505.6     -47.451665    
   1143000   295.77101     -2749192.1      0             -2748517.7     -23.169031    
   1144000   300.91113     -2749193.9      0             -2748507.8     -25.463821    
   1145000   301.66615     -2749187.9      0             -2748500.1     -46.624443    
   1146000   299.20141     -2749187.5      0             -2748505.4      24.008974    
   1147000   299.55096     -2749192.8      0             -2748509.9      13.395959    
   1148000   300.0652      -2749196.9      0             -2748512.7      6.7813841    
   1149000   298.77629     -2749197.6      0             -2748516.4     -19.692709    
   1150000   300.00441     -2749184.7      0             -2748500.7     -9.8200542    
   1151000   299.02372     -2749192.2      0             -2748510.5      29.569047    
   1152000   300.47513     -2749196.2      0             -2748511.1      25.772945    
   1153000   297.85126     -2749196.5      0             -2748517.4     -7.1836905    
   1154000   299.04379     -2749198.4      0             -2748516.6      27.014305    
   1155000   301.61628     -2749203.1      0             -2748515.4     -24.003161    
   1156000   300.08018     -2749190.8      0             -2748506.6     -33.684944    
   1157000   298.78374     -2749195.1      0             -2748513.9     -40.79078     
   1158000   300.91055     -2749188.6      0             -2748502.5     -36.137747    
   1159000   299.22296     -2749188.5      0             -2748506.3     -66.94407     
   1160000   300.77437     -2749192.7      0             -2748506.9     -45.323402    
   1161000   297.73909     -2749191.8      0             -2748513       -33.92211     
   1162000   301.71375     -2749196.3      0             -2748508.3     -34.444798    
   1163000   300.78859     -2749198.5      0             -2748512.7     -1.1560941    
   1164000   299.31177     -2749184.9      0             -2748502.5     -10.76022     
   1165000   299.86459     -2749195.7      0             -2748512       -15.182041    
   1166000   299.54605     -2749189.8      0             -2748506.8     -24.323162    
   1167000   301.86468     -2749191.9      0             -2748503.6     -19.585537    
   1168000   299.1262      -2749183.8      0             -2748501.8      3.4423874    
   1169000   296.94495     -2749196        0             -2748518.9      6.6483624    
   1170000   299.85389     -2749190.6      0             -2748507       -22.152108    
   1171000   298.58069     -2749198.1      0             -2748517.4     -42.324899    
   1172000   301.72042     -2749192.2      0             -2748504.3     -44.063018    
   1173000   300.61052     -2749194.2      0             -2748508.8     -28.551028    
   1174000   298.98004     -2749196.1      0             -2748514.4     -54.183994    
   1175000   299.31268     -2749201.8      0             -2748519.3     -49.774075    
   1176000   300.2953      -2749189.7      0             -2748505       -39.603505    
   1177000   299.33162     -2749197.1      0             -2748514.7     -50.831204    
   1178000   300.61848     -2749192.5      0             -2748507       -0.5227262    
   1179000   300.18685     -2749194.6      0             -2748510.2     -4.3873106    
   1180000   301.80631     -2749200.6      0             -2748512.5     -28.779089    
   1181000   299.09663     -2749196.3      0             -2748514.4     -12.118349    
   1182000   298.56151     -2749190.9      0             -2748510.2      21.043561    
   1183000   301.29255     -2749192.2      0             -2748505.2      48.941026    
   1184000   301.5326      -2749198.4      0             -2748510.9      36.224617    
   1185000   300.80929     -2749195.6      0             -2748509.8     -16.150802    
   1186000   299.13978     -2749189.6      0             -2748507.6     -14.170008    
   1187000   299.32723     -2749187.5      0             -2748505       -3.229356     
   1188000   300.68        -2749192        0             -2748506.4     -4.1564358    
   1189000   299.03887     -2749185.8      0             -2748504        16.171695    
   1190000   298.27985     -2749191.9      0             -2748511.8      2.3195887    
   1191000   301.67191     -2749194.7      0             -2748506.9     -9.4514223    
   1192000   296.23953     -2749201.8      0             -2748526.4     -65.014731    
   1193000   300.9926      -2749188.8      0             -2748502.5     -106.43763    
   1194000   298.90315     -2749211.5      0             -2748530       -19.17523     
   1195000   301.98542     -2749187.1      0             -2748498.6     -55.192313    
   1196000   300.08992     -2749199.2      0             -2748515       -10.779895    
   1197000   298.52788     -2749190.8      0             -2748510.2     -23.003246    
   1198000   298.82135     -2749187.8      0             -2748506.5     -7.2119928    
   1199000   300.91707     -2749190.4      0             -2748504.3      9.3012926    
   1200000   300.94365     -2749189.8      0             -2748503.6      30.464692    
Loop time of 51058.8 on 1536 procs for 80000 steps with 17640 atoms

Performance: 0.135 ns/day, 177.288 hours/ns, 1.567 timesteps/s, 27.639 katom-step/s
100.0% CPU use with 1536 MPI tasks x 1 OpenMP threads

MPI task timing breakdown:
Section |  min time  |  avg time  |  max time  |%varavg| %total
---------------------------------------------------------------
Pair    | 0.13915    | 5768.7     | 50324      |15903.6 | 11.30
Bond    | 0.0031591  | 0.0066788  | 0.03175    |   7.4 |  0.00
Neigh   | 0.014182   | 0.19206    | 5.3248     | 144.8 |  0.00
Comm    | 0.5697     | 1816       | 22951      |9646.2 |  3.56
Output  | 0.7511     | 6.4658     | 12.687     | 135.2 |  0.01
Modify  | 83.421     | 43459      | 51043      |7342.1 | 85.12
Other   |            | 8.724      |            |       |  0.02

Nlocal:        11.4844 ave         249 max           0 min
Histogram: 1356 16 67 48 8 3 5 8 20 5
Nghost:        111.021 ave        1892 max           0 min
Histogram: 1226 177 41 28 25 10 9 4 5 11
Neighs:              0 ave           0 max           0 min
Histogram: 1536 0 0 0 0 0 0 0 0 0
FullNghs:      1602.81 ave       48596 max           0 min
Histogram: 1404 74 13 5 2 5 5 5 11 12

Total # of neighbors = 2461922
Ave neighs/atom = 139.56474
Ave special neighs/atom = 0
Neighbor list builds = 4103
Dangerous builds = 0

write_restart nvt_prod.restart.*
System init for write_restart ...
write_data nvt_prod_final.lammps-data
System init for write_data ...

Total wall time: 14:11:33
