LAMMPS data file via write_data, version 4 Feb 2025, timestep = 1200000, units = metal

17640 atoms
3 atom types

0 154.00799999999998 xlo xhi
0 148.2 ylo yhi
0 151.07609208607428 zlo zhi

Masses

1 12.01099999691024
2 1.007999999740698
3 15.99899999588435

Atoms # full

5976 0 1 0 2.0280015970107215 7.967048293632666 100.68457366830236 1 0 0
5988 0 1 0 4.21999194332192 9.127120569187593 100.66053869273235 1 0 0
5977 0 1 0 1.2843290628047535 9.18759763993015 100.6648116625578 1 0 0
5987 0 1 0 3.445536162371438 7.87467080101213 100.67954283345782 1 0 0
5997 0 1 0 5.622351493918719 9.126202356499931 100.71260853905493 1 0 0
5981 0 1 0 3.441030174786349 12.866685788569797 100.37393024458176 1 0 0
5979 0 1 0 1.3307169048933394 11.629290399195481 100.59179704845948 1 0 0
5980 0 1 0 2.0540234393952437 12.830346316120924 100.52918338494385 1 0 0
5990 0 1 0 4.161704417228165 11.603023421708084 100.56712375072763 1 0 0
5989 0 1 0 3.482110716188574 10.435475176275853 100.62115112251055 1 0 0
5978 0 1 0 2.006474531588205 10.401419328104597 100.61299594942271 1 0 0
6000 0 1 0 6.341952462993638 12.815492001563909 100.45688293691822 1 0 0
5999 0 1 0 5.625282482965183 11.65164695390913 100.64778479557633 1 0 0
5941 0 1 0 7.736224345895979 12.805520366196726 100.55684088154283 1 0 0
5998 0 1 0 6.359280553029043 10.404783346984017 100.65498458593326 1 0 0
6033 0 1 0 1.3403769831081087 16.563651690115393 100.27361853279581 1 0 0
6034 0 1 0 2.0696792046180814 17.82022813530077 100.19033492236973 1 0 0
6045 0 1 0 3.468518181116634 17.81161677495599 100.13530223445416 1 0 0
6044 0 1 0 4.179235629521383 16.55385335846619 100.17480303986572 1 0 0
6043 0 1 0 3.4853377328587065 15.269189976025219 100.2558519936338 1 0 0
6032 0 1 0 2.023880847160096 15.297353998055932 100.29959870189413 1 0 0
6042 0 1 0 4.202963901059255 14.044886100609078 100.27504145767377 1 0 0
6031 0 1 0 1.294565199021673 14.064084430235715 100.3776880516004 1 0 0
6053 0 1 0 5.6383682831611655 16.51673153548039 100.14142899499303 1 0 0
6724 0 1 0 8.491802666140462 16.517413437861684 100.2230449972138 1 0 0
6052 0 1 0 6.345918855337288 15.271436625791154 100.28326210977501 1 0 0
6722 0 1 0 8.461683121161123 14.062362714533093 100.64924734385204 1 0 0
6051 0 1 0 5.618917116277301 14.023942146967492 100.39008817282705 1 0 0
6005 0 1 0 7.764384070483206 17.754670191915736 100.02400335355546 1 0 0
6054 0 1 0 6.337352013723363 17.733510060365465 100.03659116059237 1 0 0
6003 0 1 0 7.737865992460131 15.320372960025633 100.47806025319878 1 0 0
5982 0 1 0 4.177175640058122 1.815905298664005 101.5613034241467 1 0 0
5920 0 1 0 1.9694101861562372 0.564390150526702 101.53308045629359 1 0 0
5921 0 1 0 3.448779474956998 0.5807882895762192 101.68851880071395 1 0 0
5971 0 1 0 1.267148959838962 1.7467106200817264 101.34808931256482 1 0 0
5984 0 1 0 4.148572111032227 4.174802792321867 101.10128146417904 1 0 0
5983 0 1 0 3.4327834819274794 2.9979691358451377 101.28934168313992 1 0 0
5972 0 1 0 1.9939461400165088 2.9908770622792726 101.2460138225938 1 0 0
5973 0 1 0 1.2974378639848918 4.22464519536153 100.95128067126153 1 0 0
9764 0 2 0 2.4246827688089247 3.0815184770912563 104.61349607860718 1 0 0
16647 0 3 0 0.4483115612128122 0.4717173325748888 104.62025677162113 1 0 0
17348 0 3 0 1.2832675212911893 4.4532535479102675 104.04163562491392 1 0 0
6664 0 1 0 8.45993644590439 4.218493837420825 101.49853723878721 1 0 0
6662 0 1 0 8.385480387734408 1.795572556293059 102.09882391557073 1 0 0
5943 0 1 0 7.744444566596915 2.974561150409389 101.67463424061876 1 0 0
5991 0 1 0 5.569782472877287 1.8081884546081997 101.69207460422002 1 0 0
5881 0 1 0 7.687057572726799 0.5478084142754037 102.07037897873286 1 0 0
5940 0 1 0 6.254681280727963 0.5609521099180129 101.90852367704353 1 0 0
5992 0 1 0 6.284515595678398 3.02850344999095 101.49681231150454 1 0 0
5993 0 1 0 5.59899072120044 4.178747495693469 101.16421564722847 1 0 0
12071 0 2 0 8.655068248397642 3.9942326823266963 104.79893517177233 1 0 0
16356 0 3 0 7.961675044888717 4.469489726957356 104.38976210816186 1 0 0
12072 0 2 0 7.182042328522549 4.048228657579813 104.69649229668153 1 0 0
14055 0 2 0 1.8043748185172195 4.987787127652893 103.42905320860481 1 0 0
14056 0 2 0 1.3311533122424013 4.945026789541785 104.88346267287714 1 0 0
5974 0 1 0 1.9935623490836143 5.434778955029954 100.8882543194942 1 0 0
5985 0 1 0 3.4049098759546106 5.422666077266486 100.91840382356956 1 0 0
5986 0 1 0 4.183591927799824 6.6625719111791035 100.80379967604986 1 0 0
13038 0 2 0 3.631802441623915 7.3300127834405195 104.40845293050432 1 0 0
16839 0 3 0 3.09311487355064 7.90022760759516 103.83871525354695 1 0 0
13037 0 2 0 3.5262569774769186 8.776874087695543 103.6876280414799 1 0 0
10134 0 2 0 1.3867460822619382 8.154029603874164 103.98962131682974 1 0 0
15387 0 3 0 0.45050827569973195 7.986264283802541 104.2064458044088 1 0 0
5975 0 1 0 1.314905506028575 6.701612855936432 100.74752042472738 1 0 0
9126 0 2 0 5.084783194184672 5.5899892964453155 104.21715695049627 1 0 0
12078 0 2 0 7.454475148856331 7.6194549202122275 104.1633175413684 1 0 0
5945 0 1 0 7.729041627105467 5.4213384405431215 101.28111127185785 1 0 0
5994 0 1 0 6.331580101058309 5.445554323804113 101.07852730405018 1 0 0
5995 0 1 0 5.594546864530403 6.659452607172329 100.86325387104176 1 0 0
6666 0 1 0 8.4680674568933 6.619896125990122 101.10955439468313 1 0 0
11827 0 2 0 5.8230155495312825 9.061143787113185 103.12808205452357 1 0 0
5996 0 1 0 6.334814334357295 7.889622579804005 100.88835344373237 1 0 0
12077 0 2 0 8.00461182018717 6.141398403557997 104.33870561050708 1 0 0
16359 0 3 0 8.282550454377619 7.085917193716095 104.32678178192478 1 0 0
5947 0 1 0 7.787681667698443 7.87655103775771 100.9661226712287 1 0 0
16234 0 3 0 6.163450547622375 8.963210122384208 104.01090831693567 1 0 0
6668 0 1 0 8.50790584007318 9.08995922794813 100.84087862994502 1 0 0
10086 0 2 0 0.5064403752205144 11.90891980419838 104.20011881437992 1 0 0
16792 0 3 0 3.9016018180476135 10.696298192889254 104.14258104444507 1 0 0
12944 0 2 0 3.0004215374970915 10.775256892585487 104.4831843928981 1 0 0
10680 0 2 0 3.80625044331457 12.836707652840671 103.49833528875283 1 0 0
15660 0 3 0 3.0791749579777923 13.514478149594295 103.49292918189015 1 0 0
10679 0 2 0 2.2120205689077546 12.953015500191766 103.4550426715927 1 0 0
15363 0 3 0 0.6128890560333388 12.637585158015826 103.53181584251247 1 0 0
12943 0 2 0 4.491094649732185 10.390827676914922 104.79998645256484 1 0 0
11828 0 2 0 6.685316076844887 9.8314572864598 104.05071547695005 1 0 0
15287 0 3 0 7.628988898049508 11.250520027470957 104.44140449865459 1 0 0
9934 0 2 0 7.243725280645488 12.142444661427312 104.28798756489748 1 0 0
9933 0 2 0 8.554303615851419 11.250744229560805 104.08404540228356 1 0 0
17144 0 3 0 7.252117993910543 13.802642357768356 103.83567441708182 1 0 0
5949 0 1 0 7.759998811907927 10.355062892518033 100.81955781341689 1 0 0
6670 0 1 0 8.45003478699938 11.559318906965721 100.73098711068046 1 0 0
16486 0 3 0 1.6501572615245386 17.883556708640388 103.61490052459418 1 0 0
13115 0 2 0 3.4556973969664835 14.994657944624507 104.32550752532573 1 0 0
16878 0 3 0 3.8798096928059964 15.799777081474419 104.84871993188727 1 0 0
12332 0 2 0 2.152901789894179 17.538192037565935 102.80745693390581 1 0 0
12331 0 2 0 0.8886736068301425 17.35929064650711 103.7977653531942 1 0 0
12388 0 2 0 4.587358291937602 17.054769147428765 104.07617558257265 1 0 0
12950 0 2 0 8.54659142134178 18.24182383034926 103.86418447527781 1 0 0
13647 0 2 0 6.932705802143582 14.37486193177626 104.5807304214658 1 0 0
12949 0 2 0 8.49806822303134 17.80553836298355 102.45087989235799 1 0 0
16795 0 3 0 9.046401989848402 18.332662202027624 103.03269604153213 1 0 0
13648 0 2 0 8.18936752078792 14.061570275312244 103.85908363428938 1 0 0
12387 0 2 0 5.0728612849616015 17.406734341529898 102.71357863968069 1 0 0
16514 0 3 0 4.859230421878822 17.898682708296178 103.5061882034641 1 0 0
11712 0 2 0 6.300024138805644 18.173662478701317 104.36596317183155 1 0 0
9763 0 2 0 2.703256940201768 1.6197147734228206 105.01391811657025 1 0 0
12653 0 2 0 0.010445181301633966 1.0925052168843732 105.22596930324656 1 0 0
15202 0 3 0 2.948596704877636 2.515281443459218 105.18752249113332 1 0 0
16345 0 3 0 2.376077100838492 2.6061475175736075 108.91634799107709 1 0 0
12050 0 2 0 2.316417753759273 2.8488888069721816 107.96396668701462 1 0 0
12049 0 2 0 1.6363636626075773 1.9502230379072483 108.97779144086026 1 0 0
13258 0 2 0 4.416472968376987 2.5525449023713485 108.62122427809936 1 0 0
10752 0 2 0 4.793339791177894 2.5893457260134363 105.11043768067476 1 0 0
14566 0 2 0 0.5903331356070896 4.4080989935592285 106.62211958025233 1 0 0
16888 0 3 0 9.464597931556535 2.5619347171536275 106.07058958552057 1 0 0
15493 0 3 0 7.35771905082959 0.8787946462051427 106.74627824404318 1 0 0
16949 0 3 0 5.282822719477134 2.977139230399662 108.5526179857968 1 0 0
15696 0 3 0 5.714544948023636 2.847576374146519 105.42592609469362 1 0 0
10751 0 2 0 5.504876860689616 2.970861689525011 106.37632401909842 1 0 0
10345 0 2 0 6.92669618184547 1.26634843335372 105.93902035876683 1 0 0
13257 0 2 0 5.093973246247997 3.9396611312153764 108.81465019203955 1 0 0
13136 0 2 0 8.914412818389982 1.8905574517960282 106.49852421494435 1 0 0
10346 0 2 0 6.662266821602527 0.75531667397239 107.39346403221347 1 0 0
14883 0 3 0 4.721629023824955 5.939024209981479 105.04774906359468 1 0 0
13919 0 2 0 2.898559780802395 8.711845806114558 107.19253160178708 1 0 0
17280 0 3 0 1.901796985467072 8.860488393793693 107.37163433463034 1 0 0
13920 0 2 0 1.7236794344739261 9.147048979247733 108.34921231494403 1 0 0
14565 0 2 0 1.4488447882392 5.467650012610969 107.40449927025469 1 0 0
17603 0 3 0 0.9663361581425854 5.306943905123102 106.60718858629025 1 0 0
10133 0 2 0 0.5805324281669233 7.597560291109053 105.07088887494021 1 0 0
13632 0 2 0 9.509831175430095 6.4038013604882105 107.14449058410719 1 0 0
9125 0 2 0 4.939644117763171 5.2425747524753366 105.71501643451255 1 0 0
16213 0 3 0 8.305973084139348 9.175304066145257 108.64372598849393 1 0 0
10796 0 2 0 5.356251943247831 6.640427921293904 107.45239640816885 1 0 0
15718 0 3 0 5.766974052763699 5.790264158265416 107.71799620871838 1 0 0
10795 0 2 0 6.735156142234691 5.841391566222215 107.51916546864472 1 0 0
13631 0 2 0 8.500668829913284 7.055136719356783 106.26810088856755 1 0 0
17136 0 3 0 8.631497292961656 6.869952182952289 107.25507586897729 1 0 0
11786 0 2 0 7.417063432952942 8.813732867458654 108.97545952386076 1 0 0
11785 0 2 0 8.81460326904321 8.337501239181249 108.3017014695319 1 0 0
16414 0 3 0 4.896689236389274 8.605461011985259 106.76668084051657 1 0 0
12187 0 2 0 5.130702527971823 8.73039673966744 105.81424582213357 1 0 0
12779 0 2 0 1.5511795913289144 10.057621747950023 106.23134927995353 1 0 0
16710 0 3 0 1.5071196696457028 10.960857701157234 105.70672663907648 1 0 0
12780 0 2 0 1.8731372622639393 11.619869408981709 106.37491470415627 1 0 0
10410 0 2 0 4.499739448518494 12.062773466712406 106.95483418343368 1 0 0
13787 0 2 0 2.8160184573859808 13.001247527866704 108.54849943509898 1 0 0
17214 0 3 0 2.5014324035738595 13.001228736244137 107.65563669484935 1 0 0
12188 0 2 0 5.251064276539672 9.381547564355522 107.19290326473691 1 0 0
15525 0 3 0 5.187313005722675 11.462306640766936 107.08491830174263 1 0 0
13876 0 2 0 6.799305355266166 13.801149558363242 108.08596143592885 1 0 0
17258 0 3 0 7.349753377097418 13.226588568837599 108.63424156528887 1 0 0
10071 0 2 0 8.379587876382812 10.538017540895211 107.73534072829644 1 0 0
13875 0 2 0 7.840052901424884 12.625900467294366 107.97615623191821 1 0 0
10072 0 2 0 8.280693154381984 11.259527680089366 106.08305505902656 1 0 0
15356 0 3 0 8.448877293853148 11.36789315014572 107.13129636376625 1 0 0
10409 0 2 0 6.066082439317582 11.918630452112703 107.15252977725974 1 0 0
11881 0 2 0 0.5491954125831666 14.85712827968568 108.25669700042748 1 0 0
13116 0 2 0 3.241720982473907 16.09402132452341 105.54377113967219 1 0 0
13788 0 2 0 2.421138366516814 13.945769596128931 107.35062189092339 1 0 0
13914 0 2 0 1.1476589400693937 16.012449338084974 106.36849225112894 1 0 0
17277 0 3 0 1.9103447563837448 15.965631006984559 106.90342706870587 1 0 0
13913 0 2 0 2.0527195519721695 16.87539507258415 107.30751561999774 1 0 0
16138 0 3 0 1.4920232740159283 18.191739280729436 108.10508896509072 1 0 0
17561 0 3 0 4.7032188952322755 18.011756878535394 107.31921209001023 1 0 0
9677 0 2 0 9.04647844092231 14.849714196675178 108.63995340711955 1 0 0
14481 0 2 0 4.990960469728149 17.323269841269006 107.94705663421662 1 0 0
13641 0 2 0 6.769454683137642 15.535315124330571 106.70636942748787 1 0 0
17141 0 3 0 6.223374748403532 14.856964349910323 106.1853225984123 1 0 0
13642 0 2 0 5.427783932799433 15.29198084792647 105.72000387539079 1 0 0
9785 0 2 0 8.589275899583253 17.133665472594846 107.54141882546068 1 0 0
15213 0 3 0 7.70623796181399 16.690112483292488 107.628321794654 1 0 0
9786 0 2 0 7.38971323380907 17.182458024694693 108.42712369700081 1 0 0
16176 0 3 0 7.0861439216182305 18.27751309889892 104.96500809867341 1 0 0
11711 0 2 0 7.1072093574625645 17.55176802935062 105.59682690338873 1 0 0
13830 0 2 0 9.618780045558285 14.428405677922177 106.0147165417556 1 0 0
16654 0 3 0 0.10088587489263916 3.402212059462534 111.5182859151709 1 0 0
12668 0 2 0 0.713231280523152 3.418984871473766 112.28657773364613 1 0 0
13103 0 2 0 1.8601395574792372 6.199800531078841 109.74243550610545 1 0 0
13104 0 2 0 1.3820789487739982 4.680687169940686 109.90648504051282 1 0 0
16872 0 3 0 1.3962365011492897 5.478374399891359 109.26802967829943 1 0 0
15374 0 3 0 0.9306026219252499 7.5942906478935885 113.22791929579365 1 0 0
10108 0 2 0 0.34066523681362254 8.342383317197777 113.11392021771502 1 0 0
16653 0 3 0 5.795985569625659 8.094939137895931 109.71503941265922 1 0 0
12666 0 2 0 5.607549937121027 7.148585436000944 109.87301675494972 1 0 0
12665 0 2 0 5.128526531175539 8.5504320126508 110.19149087835208 1 0 0
17238 0 3 0 3.8343165256564986 10.714108840733065 113.14875442342182 1 0 0
8654 0 2 0 1.00596575639641 10.41713700231187 109.56572360091074 1 0 0
14647 0 3 0 1.4821350200317436 9.749145314738918 110.06901834439253 1 0 0
8653 0 2 0 2.414086069830645 10.08634491159331 110.10005491738175 1 0 0
15645 0 3 0 3.91687735359928 10.586776613718978 110.41309756255914 1 0 0
10650 0 2 0 3.9533708922056223 10.574431505625451 111.41070544305005 1 0 0
10649 0 2 0 4.039630134609194 11.541884688962332 110.17048524970166 1 0 0
14086 0 2 0 0.6845281116695946 12.85928393122584 111.85071048425183 1 0 0
17167 0 3 0 2.5649594639180635 13.458716826996453 110.68292854676501 1 0 0
13693 0 2 0 3.365961833092285 13.385727692018703 111.26650440038749 1 0 0
13835 0 2 0 4.493273552052799 11.439597576193151 113.15824526552551 1 0 0
11026 0 2 0 8.01076614878222 13.648289534577641 111.64459279710762 1 0 0
14791 0 3 0 9.504279807129343 10.705514385912572 111.12061940774143 1 0 0
9116 0 2 0 5.014080267947835 13.762410168805449 113.1387409856724 1 0 0
8942 0 2 0 9.10762503247765 10.220227347803716 110.38997101032679 1 0 0
8941 0 2 0 8.829238563261875 11.317627787458662 111.48768951371629 1 0 0
14878 0 3 0 4.813674223202357 13.290884068237924 112.2483141986883 1 0 0
9115 0 2 0 5.717675517402612 13.314451734669957 111.87994444639438 1 0 0
15833 0 3 0 7.694778779493437 12.723391967868443 111.61053544331185 1 0 0
11025 0 2 0 7.285614163607366 12.802815731027234 110.67736120708328 1 0 0
11339 0 2 0 4.511452491650971 15.981866654992167 109.70704618941018 1 0 0
12210 0 2 0 0.10699345468774336 17.368459113851156 109.44780558711524 1 0 0
13694 0 2 0 2.5472876429147955 14.424326006769725 110.52075103919424 1 0 0
8743 0 2 0 2.746180610264154 16.672501619740288 111.68392230549446 1 0 0
14692 0 3 0 2.7462455098012937 16.515716354581002 110.70497505117353 1 0 0
8744 0 2 0 1.7813101396155695 16.471777849654018 110.517851287486 1 0 0
16425 0 3 0 0.10951139071812577 17.076276521215828 110.34974356393884 1 0 0
10337 0 2 0 5.3435922059033185 18.504647640414607 111.70863066261977 1 0 0
11131 0 2 0 7.45898637239643 17.133714579166533 110.7185018603676 1 0 0
11132 0 2 0 6.803607327839939 16.54372812216749 111.93814769476437 1 0 0
9848 0 2 0 8.772656460207537 16.471798472186734 112.20906957712003 1 0 0
15990 0 3 0 5.352733013081034 15.735244703129338 109.33163265145636 1 0 0
11340 0 2 0 6.095222418592625 15.901645679797198 109.96927822306426 1 0 0
15886 0 3 0 7.4722601098281025 16.25577785636957 111.23756879293599 1 0 0
10107 0 2 0 1.6231644885692567 8.104179401242455 113.67452785584517 1 0 0
15372 0 3 0 0.9457235670472974 11.348296795790102 117.17749204864465 1 0 0
10103 0 2 0 0.6819271545840789 10.458047267306378 116.85199927930283 1 0 0
15229 0 3 0 2.0263903984116785 12.381474093777973 114.60905034647638 1 0 0
9817 0 2 0 2.3960401314226165 13.263844287965473 115.00602519532438 1 0 0
10104 0 2 0 1.4127807569054749 11.592580169190992 116.35234015791447 1 0 0
9818 0 2 0 1.3216946239325804 12.680664354263651 113.9479352024152 1 0 0
13836 0 2 0 3.0678042417237865 11.14094622778272 113.5681293292397 1 0 0
12054 0 2 0 8.619596598200085 13.729566508318987 114.24867643339506 1 0 0
12053 0 2 0 7.745875973566768 12.499109204915172 113.9855979573336 1 0 0
16347 0 3 0 7.926793990586621 13.144807324097648 114.659276041263 1 0 0
13801 0 2 0 3.695671543027521 14.54244303985231 116.06904523036077 1 0 0
13802 0 2 0 2.175877560043929 15.355327568868107 116.27122011369703 1 0 0
17221 0 3 0 2.7947810706682277 14.796427601400408 115.62439507751867 1 0 0
17140 0 3 0 2.779993732758089 16.84780835945105 113.58425610655627 1 0 0
16212 0 3 0 0.4148835516957362 18.36378965566398 114.73997211500006 1 0 0
13640 0 2 0 2.756082030695124 16.113474997921205 114.21929693632022 1 0 0
13639 0 2 0 2.1096458083163596 17.51012136259735 113.91128598478831 1 0 0
11954 0 2 0 0.8249794388523998 17.261275910959814 116.13203572771481 1 0 0
16297 0 3 0 0.8745794699513798 16.58477423766182 116.88181311197762 1 0 0
12897 0 2 0 4.793413508110416 17.311443605743317 113.44425167502006 1 0 0
17089 0 3 0 7.159873915182709 18.49632922493111 115.33792080469215 1 0 0
10934 0 2 0 6.302817292910153 14.139564942659756 114.67717804927375 1 0 0
15787 0 3 0 5.339129940662772 14.390463604080583 114.71894082184718 1 0 0
10933 0 2 0 5.364644417255135 15.384484539258217 114.47690309136306 1 0 0
11122 0 2 0 7.585414557364031 14.629678265263712 116.83859312974025 1 0 0
9654 0 2 0 5.687135012626964 18.32525326862388 116.64589392224792 1 0 0
12898 0 2 0 6.240415407805325 17.341367099900463 114.26819528645119 1 0 0
16769 0 3 0 5.645472525654671 16.90117789374992 113.59338347279034 1 0 0
13537 0 2 0 8.035300357926065 18.061981094517865 115.37246597574155 1 0 0
15147 0 3 0 4.99334312369482 18.34779758957088 117.38092266971009 1 0 0
15881 0 3 0 7.4702964032493755 15.585345300965926 116.78681527486785 1 0 0
11121 0 2 0 8.334302864510311 15.921721277850674 116.49049998740374 1 0 0
9050 0 2 0 4.753806853591785 16.235035902911836 117.68278926634846 1 0 0
8770 0 2 0 2.9374573979176546 15.499355158607056 118.96765657787489 1 0 0
14705 0 3 0 2.3396834426456317 16.178530028197002 119.35378741111654 1 0 0
14845 0 3 0 4.595173528736572 15.277709657603435 117.86620641722627 1 0 0
11953 0 2 0 1.4637709060353834 16.991228334267326 117.58087182421677 1 0 0
12892 0 2 0 1.3877132511877877 18.193703741014435 120.16081417112439 1 0 0
8769 0 2 0 1.4846549191902512 15.7107999318615 119.33258374855987 1 0 0
9049 0 2 0 5.504496978581495 14.96098334317611 117.67658480088531 1 0 0
6035 0 1 0 1.2894785242991036 19.04858597692053 100.01936449641603 1 0 0
6047 0 1 0 3.4752742216065626 20.264399764346283 99.93888399526588 1 0 0
6036 0 1 0 2.0355560005548248 20.25396696269434 99.89532697168387 1 0 0
6046 0 1 0 4.216088528158256 19.028707349914512 99.99530112180685 1 0 0
6037 0 1 0 1.3007643352398155 21.48667658589011 99.86903576065293 1 0 0
6048 0 1 0 4.202749649792616 21.4900032994734 99.93316131559385 1 0 0
6049 0 1 0 3.4392273730067577 22.651667795451814 99.86919295333152 1 0 0
6038 0 1 0 2.0390522510406752 22.694545530529854 99.80385086963194 1 0 0
6055 0 1 0 5.6365168445720775 19.0036908784888 99.96541754956986 1 0 0
6057 0 1 0 5.630392396650193 21.44996743992194 99.88422760386642 1 0 0
6058 0 1 0 6.359976005165527 22.713317716331822 99.88720171521383 1 0 0
6056 0 1 0 6.346659444416074 20.274508328572416 99.84199014323484 1 0 0
6007 0 1 0 7.788747904465848 20.28656640056778 99.89535288295545 1 0 0
6728 0 1 0 8.532810458475192 21.516609490086545 99.99042130110031 1 0 0
6009 0 1 0 7.803963197202391 22.726854114893293 99.92032761032392 1 0 0
6726 0 1 0 8.483511594259404 19.02470312039163 99.97376597114571 1 0 0
6039 0 1 0 1.2894209751415322 23.9130041531389 99.76519381473805 1 0 0
6050 0 1 0 4.19478607246255 23.91495713103451 99.72766136531145 1 0 0
6041 0 1 0 3.4860104798016995 25.183710152450317 99.66117868147958 1 0 0
6040 0 1 0 2.055176363023465 25.16727392907984 99.60274645287645 1 0 0
6091 0 1 0 1.3576218953992503 26.419752036436062 99.60268515329957 1 0 0
6102 0 1 0 4.199017241728034 26.40916219648616 99.5383807219727 1 0 0
6092 0 1 0 2.0678262865672745 27.663575615439495 99.67636576924022 1 0 0
6103 0 1 0 3.4841281728261873 27.640107442284027 99.66842538850217 1 0 0
6059 0 1 0 5.65528035137523 23.935388549782203 99.919509593649 1 0 0
6111 0 1 0 5.613695153309507 26.4243378781089 99.6780763842546 1 0 0
6060 0 1 0 6.364799903866238 25.187279689465523 99.79802992495259 1 0 0
6001 0 1 0 7.79268660028156 25.12347509768472 99.91961997778373 1 0 0
6782 0 1 0 8.555256345502574 26.402764756689617 99.82606104710582 1 0 0
6730 0 1 0 8.500679501461196 23.912101971364876 99.9274408075288 1 0 0
6112 0 1 0 6.34575996109575 27.649682579045994 99.81403566575777 1 0 0
6063 0 1 0 7.760259200214717 27.611402730177534 99.89790924174542 1 0 0
6093 0 1 0 1.3572427009014496 28.882625893059824 99.62394416755753 1 0 0
6104 0 1 0 4.207421068010688 28.884499970596924 99.77449047848108 1 0 0
6094 0 1 0 2.0757306176215224 30.127876401942814 99.79852704533613 1 0 0
6105 0 1 0 3.4798218563168253 30.131957615058504 99.92752334638806 1 0 0
6095 0 1 0 1.354278277465625 31.346681478089344 99.70399295795178 1 0 0
6106 0 1 0 4.176137606250615 31.38207694127678 100.01751048623285 1 0 0
6113 0 1 0 5.620227208704071 28.87913836414423 99.8548016732082 1 0 0
6115 0 1 0 5.584979354744185 31.38089142757999 100.08179217953374 1 0 0
6114 0 1 0 6.3431493360354425 30.123907971968467 100.04116245717218 1 0 0
6065 0 1 0 7.74719860479744 30.08663826768066 100.05449234220418 1 0 0
6784 0 1 0 8.490518928277085 28.86615104070463 100.0522156706243 1 0 0
6786 0 1 0 8.43823195135451 31.323305749835104 100.1330787200474 1 0 0
6108 0 1 0 4.1870446265652586 33.89389218203001 100.04105455668254 1 0 0
6098 0 1 0 1.976439862159909 35.07758143441284 100.01547995089265 1 0 0
6097 0 1 0 1.332512060323959 33.8533782031775 99.81831468516944 1 0 0
6110 0 1 0 4.137374065206677 36.29407450713496 100.27306543519141 1 0 0
6099 0 1 0 1.2779378691931824 36.33656871762416 99.93888542563751 1 0 0
6107 0 1 0 3.4644082948289734 32.687650822686116 99.9959350112023 1 0 0
6096 0 1 0 2.0575861556577557 32.648177536322194 99.84652580142492 1 0 0
6109 0 1 0 3.3883622522009365 35.07962286924175 100.09861562413097 1 0 0
6788 0 1 0 8.41887551504725 33.82988492626785 100.26408339734888 1 0 0
6067 0 1 0 7.767630319031367 32.55544295853773 100.19849049558157 1 0 0
6116 0 1 0 6.305760548797261 32.60279829206126 100.11962760172145 1 0 0
6790 0 1 0 8.484818125494508 36.32123239172116 100.44156696308785 1 0 0
6118 0 1 0 6.305081614419374 35.13457472047374 100.26400586249669 1 0 0
6119 0 1 0 5.602947514536944 36.353045310924365 100.3368383633322 1 0 0
6117 0 1 0 5.645626906523853 33.870940524465524 100.14013593449317 1 0 0
6069 0 1 0 7.735885160945016 35.10523475348088 100.34906856568233 1 0 0
16755 0 3 0 4.13777024651548 21.311604668015278 102.96577378288049 1 0 0
11562 0 2 0 2.869096661834293 22.8340825056333 102.72586652191768 1 0 0
12870 0 2 0 4.749472153633408 20.71662217962657 102.56279761422068 1 0 0
12869 0 2 0 3.5995074306751254 20.83132856213904 103.68546479370124 1 0 0
12521 0 2 0 2.4765461749163507 19.077172258701765 104.34463100738392 1 0 0
16581 0 3 0 2.6260478667054743 19.8859194923091 104.85857288930427 1 0 0
16127 0 3 0 8.925532944543514 23.041473746141907 102.96676990494541 1 0 0
11614 0 2 0 8.018274335267327 23.051877552065637 103.31276603881355 1 0 0
10643 0 2 0 5.552187672428826 22.425285360697803 103.7342504154058 1 0 0
15642 0 3 0 6.317222349914575 22.522965720747063 104.35708076177244 1 0 0
11613 0 2 0 8.916290114224866 22.39001558170173 102.27771535022578 1 0 0
16101 0 3 0 2.490665699175423 23.713913368056655 102.89237945061728 1 0 0
11561 0 2 0 3.184583035661148 24.380740688172587 102.72009423831526 1 0 0
14279 0 2 0 3.704081170937797 27.11669910318342 102.45545727607553 1 0 0
14280 0 2 0 3.5275857658957315 26.339859237206404 103.80881991429641 1 0 0
17460 0 3 0 3.884713679957567 26.24600602488249 102.81792024150499 1 0 0
14283 0 2 0 0.6024673887102946 24.315294754068727 102.51070550564759 1 0 0
13346 0 2 0 0.8046160494308187 26.702083919736108 102.77064997423284 1 0 0
12976 0 2 0 1.7104760170511892 23.76293329573612 104.4776023697547 1 0 0
16993 0 3 0 0.8982842093386739 27.542452088907503 103.21877504162829 1 0 0
10644 0 2 0 6.186009082460329 23.395106255153756 104.89906901596493 1 0 0
11893 0 2 0 7.09527786334949 27.393026490067005 103.65876940651899 1 0 0
16267 0 3 0 6.152834713400442 27.609496576307233 104.03976837148957 1 0 0
11894 0 2 0 5.531942440577419 26.968339241870932 103.60649049793861 1 0 0
16472 0 3 0 8.681991783690629 26.637808456132237 103.76559510026743 1 0 0
12304 0 2 0 8.595396055740148 25.672859965902784 103.49368807795267 1 0 0
12303 0 2 0 9.476572715970637 26.929506637638728 103.28035717414392 1 0 0
13916 0 2 0 2.715819494908885 29.854410422757418 103.96291105901057 1 0 0
17278 0 3 0 2.895671486469061 29.50763009042372 103.05710461485914 1 0 0
13915 0 2 0 3.5243995745145953 30.1522562789222 102.69051181679059 1 0 0
13345 0 2 0 1.6879022497956793 28.11129558738586 103.0819187615384 1 0 0
13696 0 2 0 0.12973084101511262 28.395387779722665 104.62009883937556 1 0 0
9782 0 2 0 5.868489256139423 29.42090971691533 103.52894312095877 1 0 0
15211 0 3 0 5.658697345311624 30.32551987297969 103.11840110024202 1 0 0
9781 0 2 0 6.538776195870133 30.748746402798925 103.06775462800252 1 0 0
10648 0 2 0 8.215606785327267 30.5526091383345 104.66975465630802 1 0 0
16246 0 3 0 8.003206684530548 31.98216021279241 103.23888750534249 1 0 0
11851 0 2 0 8.814208342759262 31.784309117702875 102.76704213287796 1 0 0
9897 0 2 0 0.25448727833227197 32.69984644847439 102.91752602224837 1 0 0
13222 0 2 0 4.764046098362306 35.48471260113436 102.9577010441907 1 0 0
11656 0 2 0 3.162165853119578 33.68832146308362 103.54408266608318 1 0 0
16148 0 3 0 2.227620181200886 34.06418359888563 103.41596117506477 1 0 0
11655 0 2 0 2.3798482713879685 34.96830789390964 103.1484992864531 1 0 0
17081 0 3 0 0.6226117093269214 36.77689632045016 102.90845158453803 1 0 0
13490 0 2 0 5.235148791522044 33.15553027779249 104.46424259162369 1 0 0
17542 0 3 0 7.836781015670669 34.78908409711407 103.69540720812398 1 0 0
14443 0 2 0 6.875904221560029 35.07885004437866 103.65106281798676 1 0 0
14444 0 2 0 7.941289111246628 34.38809548801731 104.59028821107366 1 0 0
17065 0 3 0 5.032920624462435 33.23235964856221 103.45896547445572 1 0 0
13489 0 2 0 5.649102744898318 32.624797779486045 103.09524060350579 1 0 0
16931 0 3 0 5.001220337057567 36.12816523757241 103.60971132482209 1 0 0
13221 0 2 0 4.82568717318601 35.8075142508826 104.53151703477438 1 0 0
11852 0 2 0 7.90191029179925 32.98001027784047 103.28746840916864 1 0 0
11636 0 2 0 0.8567924679571214 18.92551618126628 107.7610901011903 1 0 0
13036 0 2 0 0.08222389725737562 22.924843225502993 106.03449658605773 1 0 0
13662 0 2 0 0.6029763803703543 19.825126224658888 105.75557559054707 1 0 0
14720 0 3 0 4.117028163999791 21.721115546015284 107.32223987895522 1 0 0
8800 0 2 0 3.799757864758678 21.079592819058277 108.01692670611261 1 0 0
12522 0 2 0 3.2276641043165646 19.430503860473166 105.52164388951384 1 0 0
11635 0 2 0 2.0532374153640407 18.67815384410781 108.74803876996636 1 0 0
8799 0 2 0 4.908171646371253 21.303526724320733 106.8554391628504 1 0 0
11305 0 2 0 6.647071616982759 21.404268686636318 106.01607520436627 1 0 0
15973 0 3 0 6.8487931427740785 20.67868316690441 106.62363547351201 1 0 0
11306 0 2 0 7.019735036081416 19.890496839340706 106.0697692075767 1 0 0
13646 0 2 0 8.152780391720972 20.91538615863748 107.72556337793101 1 0 0
13645 0 2 0 9.430417704688807 20.86385823089675 108.57359049522042 1 0 0
17143 0 3 0 8.444437744895037 20.92807402250592 108.64475621281157 1 0 0
14482 0 2 0 5.537894305051762 18.579656453791053 107.24260105480933 1 0 0
16808 0 3 0 1.5569419477190798 24.020225954311677 105.44764630815551 1 0 0
12196 0 2 0 3.0384852321736515 25.506693883457164 105.93644407014682 1 0 0
16418 0 3 0 3.4234687143618197 26.256159576883753 105.40099864291123 1 0 0
12242 0 2 0 3.611034405795234 23.45976618214665 107.7777913680361 1 0 0
12975 0 2 0 1.0289418252050544 24.825811088210266 105.35786948656302 1 0 0
16441 0 3 0 3.007871018949806 24.246313278410813 107.7185200988685 1 0 0
12241 0 2 0 2.404870515360762 23.964186285564878 106.98653907099356 1 0 0
12195 0 2 0 2.8568892143166047 26.99628598432914 105.70393796862317 1 0 0
12526 0 2 0 3.6732525712499235 26.962079864553807 108.96980586957764 1 0 0
12796 0 2 0 1.7191249894622127 23.56158554462771 108.68629990481415 1 0 0
16583 0 3 0 4.096224534439217 27.652394817973963 108.3930189595598 1 0 0
12813 0 2 0 5.897098901071305 25.586925246155086 105.5264977586051 1 0 0
16727 0 3 0 6.315687007434646 24.75174504746423 105.76973835129381 1 0 0
16150 0 3 0 8.617288551244265 25.990138021829328 106.27350113958991 1 0 0
11660 0 2 0 8.663904990233657 26.560152095683947 105.5007346588825 1 0 0
12814 0 2 0 7.201033395384349 25.079879849400815 105.89121217866929 1 0 0