LAMMPS (4 Feb 2025)
OMP_NUM_THREADS environment is not set. Defaulting to 1 thread. (src/comm.cpp:99)
  using 1 OpenMP thread(s) per MPI task
# LAMMPS script for continuing NVT simulation

atom_modify map yes
newton      on

read_restart nvt_prod.restart.880000
Reading restart file ...
  restart file = 4 Feb 2025, LAMMPS = 4 Feb 2025
  restoring atom style full from restart
  orthogonal box = (0 0 0) to (153.39197 147.60149 151.07317)
  16 by 8 by 8 MPI processor grid
  pair style symmetrix/mace stores no restart info
  11640 atoms
Finding 1-2 1-3 1-4 neighbors ...
  special bond factors lj:    0        0        0       
  special bond factors coul:  0        0        0       
     0 = max # of 1-2 neighbors
     0 = max # of 1-3 neighbors
     0 = max # of 1-4 neighbors
     1 = max # of special neighbors
  special bonds CPU = 4.827 seconds
  read_restart CPU = 4.960 seconds

pair_style  symmetrix/mace
pair_coeff  * * ../../../00-common/models/ch2o-dens-inv_swa-1-6-8.json C H O
Loading MACE model from '../../../00-common/models/ch2o-dens-inv_swa-1-6-8.json' ... success
  mapping LAMMPS type 1 (C) to MACE type 1
  mapping LAMMPS type 2 (H) to MACE type 0
  mapping LAMMPS type 3 (O) to MACE type 2

group graphene type 1
8640 atoms in group graphene
group H2O type 2 3
3000 atoms in group H2O

thermo 1000

######### NVT production for 80 ps #############

dump DUMP1 all atom 100 nvt_prod_11.lammpstrj
timestep 0.001
fix NVT1 graphene nvt temp 300 300 0.1
Resetting global fix info from restart file:
  fix style: nvt, fix ID: NVT1
fix NVT2 H2O nvt temp 300 300 0.1
Resetting global fix info from restart file:
  fix style: nvt, fix ID: NVT2
run 80000
All restart file global fix info was re-assigned
Neighbor list info ...
  update: every = 1 steps, delay = 0 steps, check = yes
  max neighbors/atom: 2000, page size: 100000
  master list distance cutoff = 8
  ghost atom cutoff = 8
  binsize = 4, bins = 39 37 38
  1 neighbor lists, perpetual/occasional/extra = 1 0 0
  (1) pair symmetrix/mace, perpetual
      attributes: full, newton on
      pair build: full/bin
      stencil: full/bin/3d
      bin: standard
Per MPI rank memory allocation (min/avg/max) = 5.921 | 6.13 | 8.001 Mbytes
   Step          Temp          E_pair         E_mol          TotEng         Press     
    880000   300.81949     -1809909.7      0             -1809457.1      52.614822    
    881000   299.60881     -1809916.6      0             -1809465.8      76.482829    
    882000   299.30347     -1809909.3      0             -1809459        85.74366     
    883000   303.52413     -1809902        0             -1809445.4      50.581523    
    884000   297.58808     -1809911.3      0             -1809463.6      39.626159    
    885000   301.20953     -1809911.4      0             -1809458.3      82.077269    
    886000   297.72679     -1809911.9      0             -1809464        67.382206    
    887000   298.45942     -1809910.9      0             -1809461.8      63.988886    
    888000   299.71723     -1809907.6      0             -1809456.7      58.100936    
    889000   304.06116     -1809904.8      0             -1809447.4      90.849126    
    890000   297.27573     -1809910.2      0             -1809462.9      66.570118    
    891000   298.02816     -1809910.6      0             -1809462.2      55.594913    
    892000   298.35812     -1809905.2      0             -1809456.3      59.513441    
    893000   298.49012     -1809905.8      0             -1809456.7      66.339022    
    894000   304.31359     -1809902.3      0             -1809444.5      12.757834    
    895000   300.39669     -1809910.7      0             -1809458.8      56.310652    
    896000   300.95339     -1809907.3      0             -1809454.5      107.09728    
    897000   301.31845     -1809909.1      0             -1809455.8      93.168636    
    898000   305.13346     -1809905.7      0             -1809446.6      63.886518    
    899000   300.91495     -1809913.7      0             -1809461        49.046867    
    900000   297.8124      -1809911.4      0             -1809463.4      72.145517    
    901000   300.67806     -1809911.2      0             -1809458.9      65.430842    
    902000   302.58744     -1809907.5      0             -1809452.3      96.684838    
    903000   298.97186     -1809904.6      0             -1809454.8      113.48151    
    904000   300.59889     -1809913.7      0             -1809461.5      88.030541    
    905000   301.84076     -1809911.4      0             -1809457.3      87.181934    
    906000   302.61602     -1809908.8      0             -1809453.5      66.263174    
    907000   299.31357     -1809909.5      0             -1809459.2      70.494058    
    908000   298.17684     -1809912.4      0             -1809463.8      44.55572     
    909000   299.18221     -1809915.2      0             -1809465.1      58.298033    
    910000   299.14689     -1809907.1      0             -1809457        57.980092    
    911000   298.14959     -1809907.3      0             -1809458.8      28.967659    
    912000   294.37182     -1809907.3      0             -1809464.4      111.14422    
    913000   294.57344     -1809912.3      0             -1809469.1      98.362265    
    914000   300.3941      -1809911.4      0             -1809459.5      45.806164    
    915000   298.5478      -1809905.5      0             -1809456.4      45.43841     
    916000   297.09512     -1809908.9      0             -1809461.9      67.550076    
    917000   296.59846     -1809908.7      0             -1809462.4      71.498634    
    918000   300.82213     -1809909.9      0             -1809457.3      75.332886    
    919000   296.24893     -1809908.4      0             -1809462.7      24.086811    
    920000   304.21652     -1809904.2      0             -1809446.5      32.390314    
    921000   300.5953      -1809912.9      0             -1809460.7      123.77707    
    922000   303.93461     -1809907.1      0             -1809449.9      86.316657    
    923000   293.95131     -1809909.5      0             -1809467.3      31.3298      
    924000   301.09354     -1809910.9      0             -1809457.9      15.648305    
    925000   302.35577     -1809903        0             -1809448.1      58.528146    
    926000   300.60839     -1809908.4      0             -1809456.2      116.84724    
    927000   304.26704     -1809906.8      0             -1809449.1      72.819663    
    928000   304.1732      -1809909.8      0             -1809452.2      47.315592    
    929000   298.60629     -1809907.9      0             -1809458.7      26.199943    
    930000   304.42485     -1809907.6      0             -1809449.6      116.49001    
    931000   300.36148     -1809910.2      0             -1809458.3      93.090759    
    932000   298.78085     -1809906.3      0             -1809456.7      80.431712    
    933000   300.88234     -1809907.3      0             -1809454.6      61.415885    
    934000   300.82171     -1809909.2      0             -1809456.6      48.650802    
    935000   296.49707     -1809912.9      0             -1809466.8      35.723665    
    936000   300.15493     -1809909.9      0             -1809458.3      99.253718    
    937000   297.29546     -1809905.6      0             -1809458.3      68.365396    
    938000   299.35452     -1809909.2      0             -1809458.8      74.073608    
    939000   302.50117     -1809903.3      0             -1809448.2      61.748161    
    940000   297.7073      -1809909.3      0             -1809461.4      79.983901    
    941000   299.47481     -1809905.4      0             -1809454.8      41.234081    
    942000   300.48694     -1809902.8      0             -1809450.7      34.363558    
    943000   299.39851     -1809906.5      0             -1809456        72.650101    
    944000   301.75        -1809908.3      0             -1809454.3      56.809738    
    945000   297.2018      -1809909.3      0             -1809462.2      71.866628    
    946000   301.99888     -1809905.6      0             -1809451.3      67.961294    
    947000   298.81319     -1809907.4      0             -1809457.8      93.390477    
    948000   301.12658     -1809905.3      0             -1809452.3      48.881898    
    949000   299.57108     -1809904.1      0             -1809453.5      47.333055    
    950000   299.32839     -1809911.5      0             -1809461.2      96.427399    
    951000   294.83511     -1809915.2      0             -1809471.6      87.310607    
    952000   301.46231     -1809907.6      0             -1809454.1      22.054861    
    953000   300.03359     -1809909.4      0             -1809458        75.91505     
    954000   299.06627     -1809907        0             -1809457.1      66.133095    
    955000   297.29313     -1809906.7      0             -1809459.4      77.970036    
    956000   305.02769     -1809905.9      0             -1809447        98.17055     
    957000   303.32323     -1809912.6      0             -1809456.2      97.822239    
    958000   298.03947     -1809907.9      0             -1809459.5      55.290814    
    959000   300.39186     -1809907.3      0             -1809455.4      35.907005    
    960000   298.5045      -1809913        0             -1809463.9      97.661222    
Loop time of 56820.2 on 1024 procs for 80000 steps with 11640 atoms

Performance: 0.122 ns/day, 197.292 hours/ns, 1.408 timesteps/s, 16.389 katom-step/s
100.0% CPU use with 1024 MPI tasks x 1 OpenMP threads

MPI task timing breakdown:
Section |  min time  |  avg time  |  max time  |%varavg| %total
---------------------------------------------------------------
Pair    | 1016.8     | 5612.5     | 19118      |5580.4 |  9.88
Bond    | 0.0048078  | 0.0081587  | 0.015154   |   1.6 |  0.00
Neigh   | 0.044162   | 0.14311    | 0.98163    |  41.2 |  0.00
Comm    | 21.453     | 1915.9     | 6238.8     |3105.4 |  3.37
Output  | 0.82385    | 4.8038     | 8.822      | 106.3 |  0.01
Modify  | 34971      | 49280      | 55617      |2274.8 | 86.73
Other   |            | 6.32       |            |       |  0.01

Nlocal:        11.3672 ave         272 max           0 min
Histogram: 887 2 114 4 3 3 0 5 2 4
Nghost:        83.8828 ave        1557 max           0 min
Histogram: 793 165 38 6 9 3 4 3 1 2
Neighs:              0 ave           0 max           0 min
Histogram: 1024 0 0 0 0 0 0 0 0 0
FullNghs:      1230.15 ave       53967 max           0 min
Histogram: 942 62 4 3 2 1 4 2 0 4

Total # of neighbors = 1259672
Ave neighs/atom = 108.21924
Ave special neighs/atom = 0
Neighbor list builds = 3690
Dangerous builds = 0

write_restart nvt_prod.restart.*
System init for write_restart ...
write_data nvt_prod_final.lammps-data
System init for write_data ...

Total wall time: 15:47:23
