LAMMPS data file via write_data, version 4 Feb 2025, timestep = 960000, units = metal

11640 atoms
3 atom types

0 153.391968 xlo xhi
0 147.6014900272108 ylo yhi
0 151.07316997686289 zlo zhi

Masses

1 12.01099999691024
2 1.007999999740698
3 15.99899999588435

Atoms # full

117 0 1 0 5.270509728003668 0.7018801312856484 6.451325783890352 7 -1 12
121 0 1 0 5.3519340653991465 3.1167739406822013 6.143648718012036 7 -1 12
8523 0 1 0 3.1781910019404265 1.9268949770635198 6.224061390705921 8 -1 12
8524 0 1 0 4.609299636199365 1.9151515010127516 6.3889455745409425 8 -1 12
8522 0 1 0 2.4842914646252803 3.1676014775895753 6.202380712650757 8 -1 12
8528 0 1 0 4.627976378190479 4.364470167679917 6.065528356797002 8 -1 12
8527 0 1 0 3.1847721117341834 4.410161350264234 6.194256374168524 8 -1 12
118 0 1 0 6.705841781887663 0.6379009864341617 6.375848232305964 7 -1 12
125 0 1 0 5.3417286351782565 5.598267626762315 6.027498392349287 7 -1 12
8532 0 1 0 4.6327549610089855 6.836306209303509 6.1254059492402915 8 -1 12
8531 0 1 0 3.1772260116136524 6.838497045505928 6.086585391593541 8 -1 12
8526 0 1 0 2.4300632147598344 5.6291845748628875 6.08157175514391 8 -1 12
8530 0 1 0 2.457444232225789 8.077663976564963 6.094801452967656 8 -1 12
142 0 1 0 6.6902137383360145 15.396338180727433 6.975197957699092 7 -1 12
8529 0 1 0 1.0663358116086121 8.103555841601716 6.04186654366453 8 -1 12
8538 0 1 0 2.4638445551478014 13.069302979256033 6.195638966483575 8 -1 12
8536 0 1 0 4.620485402562712 9.334022326707748 6.163871482873357 8 -1 12
8540 0 1 0 4.611918141599342 11.822150793088062 6.231591505753974 8 -1 12
133 0 1 0 5.316052828097805 10.542963915459753 6.233998838284874 7 -1 12
8539 0 1 0 3.1745445066286733 11.770560296840113 6.163320945555436 8 -1 12
8535 0 1 0 3.195284701852349 9.292375740818484 6.104377090331479 8 -1 12
8534 0 1 0 2.471476361041048 10.560290732415702 6.104653923307439 8 -1 12
8537 0 1 0 1.005423589086026 13.05160595800301 6.164263488420683 8 -1 12
8533 0 1 0 1.0464047312627605 10.583253732756774 6.049221281604292 8 -1 12
8544 0 1 0 4.575672221366776 14.24723119264369 6.527457710596639 8 -1 12
8543 0 1 0 3.1967813478477165 14.239205165471558 6.468858961549427 8 -1 12
8541 0 1 0 1.0640289477758829 15.525137892106105 6.48000001967901 8 -1 12
8545 0 1 0 0.9587102575461772 17.857146612305737 7.018248502424193 8 -1 12
8518 0 1 0 2.4357356140414352 0.710999133453425 6.359792659627266 8 -1 12
122 0 1 0 6.768746195455936 3.0967289606918635 6.057408717438538 7 -1 12
123 0 1 0 7.436178234636561 1.8433898744877129 6.136792385031883 7 -1 12
8284 0 1 0 0.29822572075133535 1.895838196388471 6.211860622872196 8 -1 12
8304 0 1 0 0.37131221431316647 14.266399606621366 6.1975702242289055 8 -1 12
124 0 1 0 8.865711642848465 1.834174708145365 6.00216899928359 7 -1 12
127 0 1 0 7.537999152843902 4.30927721468684 5.914548129647311 7 -1 12
128 0 1 0 8.95449323221227 4.287823353559505 5.772947438136881 7 -1 12
129 0 1 0 5.374367608365878 8.072557633386419 6.078077587831065 7 -1 12
126 0 1 0 6.777504049661889 5.54463029370117 5.890512782170972 7 -1 12
130 0 1 0 6.762450381497656 8.053993208131795 5.987572458552176 7 -1 12
131 0 1 0 7.454870686181385 6.803534834119929 5.84428370905203 7 -1 12
132 0 1 0 8.84940507875414 6.808545531446205 5.75426363443396 7 -1 12
8296 0 1 0 0.3577583488282689 9.319855256297478 6.042504679340726 8 -1 12
8308 0 1 0 0.3016400645830762 16.641747143694584 6.699438916862467 8 -1 12
137 0 1 0 5.306948563933575 13.032312377335785 6.371618847339917 7 -1 12
134 0 1 0 6.745376707464865 10.52643850916081 6.18828177415055 7 -1 12
139 0 1 0 7.50502000869485 11.73264437127764 6.326309578236218 7 -1 12
138 0 1 0 6.7545447573009865 12.94627025857028 6.517221905246215 7 -1 12
135 0 1 0 7.505746907440575 9.296038137388662 6.002384335696922 7 -1 12
140 0 1 0 8.915289771257676 11.696824295313332 6.284877399210203 7 -1 12
136 0 1 0 8.927813731634794 9.283427684972288 5.83765024169052 7 -1 12
8292 0 1 0 0.2926765438791275 6.853706658306508 6.00275041199853 8 -1 12
8288 0 1 0 0.29999540422200544 4.349147981673434 6.157977047391182 8 -1 12
141 0 1 0 5.243102497502904 15.452224539546936 6.844406382493661 7 -1 12
8548 0 1 0 4.547357364256633 16.69371636362218 7.059789293749296 8 -1 12
8547 0 1 0 3.1604712322341895 16.646163416654552 6.966858195516882 8 -1 12
8542 0 1 0 2.481740707663239 15.438578939495555 6.626540300432979 8 -1 12
145 0 1 0 5.270482866345965 17.89007151948063 7.375785176252276 7 -1 12
8546 0 1 0 2.4045644973965943 17.876529163344603 7.169729093234007 8 -1 12
143 0 1 0 7.432118373327439 14.18929809831766 6.66705518629697 7 -1 12
8300 0 1 0 0.3524725384448186 11.807367165089115 6.034515851577625 8 -1 12
144 0 1 0 8.89247366156911 14.201314348656913 6.7983467346819095 7 -1 12
148 0 1 0 8.884798504058827 16.661145428063964 7.145312411774087 7 -1 12
385 0 1 0 9.56116797841692 17.89535481176946 7.36569562356462 7 -1 12
146 0 1 0 6.679830691493412 17.837877939178068 7.405538405064565 7 -1 12
147 0 1 0 7.428690372592319 16.656820455171143 7.178399730818608 7 -1 12
8525 0 1 0 1.0305404413595052 5.595028475142414 5.999445863325581 8 -1 12
8521 0 1 0 1.0399073022253456 3.133360042139638 6.159789488655986 8 -1 12
8517 0 1 0 0.9996489115304817 0.6714830623616935 6.356560459193573 8 -1 12
149 0 1 0 5.270565720719701 20.292542586337813 7.849497233668864 7 -1 12
8552 0 1 0 4.548585976354039 19.109659862246495 7.542726749342757 8 -1 12
8556 0 1 0 4.485261309291433 21.547447291377885 7.898580161683744 8 -1 12
8551 0 1 0 3.102514525445676 19.070271034770133 7.319030817917316 8 -1 12
8555 0 1 0 3.062940971815593 21.489516421827865 7.824588407723176 8 -1 12
8550 0 1 0 2.357350068633221 20.30462178182279 7.5643184817173275 8 -1 12
8549 0 1 0 0.9492190031732576 20.3294608158046 7.37050182111376 8 -1 12
155 0 1 0 7.4152060610663355 21.497257255041752 8.193988642348108 7 -1 12
150 0 1 0 6.653658083441269 20.284199290339576 8.059080368236533 7 -1 12
151 0 1 0 7.378304651543931 19.0677272879721 7.715766629872602 7 -1 12
156 0 1 0 8.834687433306012 21.525094261147984 8.195628580504007 7 -1 12
152 0 1 0 8.830457637017377 19.021370715298627 7.771066459090345 7 -1 12
389 0 1 0 9.533753186306924 20.28406880801416 7.997976136017457 7 -1 12
8558 0 1 0 2.3044943981519412 25.199082797701095 8.171781600772306 8 -1 12
157 0 1 0 5.144497404262384 25.18569106087181 8.5329117197905 7 -1 12
153 0 1 0 5.166525572639086 22.71393861817242 8.241150513102577 7 -1 12
8560 0 1 0 4.434909493744403 23.92196592298237 8.408106625972763 8 -1 12
8564 0 1 0 4.449398098732556 26.413953926055903 8.561335368483709 8 -1 12
8559 0 1 0 3.031058260966005 23.973512636474634 8.167362700077845 8 -1 12
8563 0 1 0 3.0673902162761495 26.440510573236885 8.452087518694393 8 -1 12
8554 0 1 0 2.312076087969575 22.729538126067773 7.983620651189249 8 -1 12
8557 0 1 0 0.9053504948786416 25.207303541330354 8.13191578394341 8 -1 12
8553 0 1 0 0.9109812092114711 22.766110533666133 7.827053177953769 8 -1 12
158 0 1 0 6.616719697560573 25.1568377449958 8.683799884606033 7 -1 12
154 0 1 0 6.647415253310088 22.716746769726907 8.269709821338008 7 -1 12
159 0 1 0 7.345416739845509 23.933923822978553 8.493556211203979 7 -1 12
160 0 1 0 8.781144172560428 23.975134889777046 8.603480951004777 7 -1 12
393 0 1 0 9.526366234013988 22.763894820128186 8.522881696649888 7 -1 12
163 0 1 0 7.303118960975588 26.370211444141702 8.86082561387866 7 -1 12
164 0 1 0 8.719319765593015 26.405902002535353 8.965942278038495 7 -1 12
397 0 1 0 9.460043318073351 25.17956479416262 8.834061000208075 7 -1 12
8562 0 1 0 2.2721752753694586 27.621105826380468 8.596203901313993 8 -1 12
8568 0 1 0 4.363678197198111 28.857067620486067 9.08477811318263 8 -1 12
8572 0 1 0 4.387984902842508 31.310775904750088 9.402068373021498 8 -1 12
161 0 1 0 5.103816200459723 27.6359252514203 8.916133926685392 7 -1 12
165 0 1 0 5.119383249397556 30.06057084666789 9.323757098053685 7 -1 12
8567 0 1 0 2.933283468196015 28.831824040655487 8.931428302573398 8 -1 12
8571 0 1 0 2.9320800953738044 31.31565600145097 9.325904634518595 8 -1 12
8566 0 1 0 2.253801962566873 30.078893147583113 9.10889039011281 8 -1 12
8561 0 1 0 0.8643964666861323 27.64364843470278 8.535533691082112 8 -1 12
176 0 1 0 8.676180323507705 33.7415510551722 9.772960049536513 7 -1 12
166 0 1 0 6.49913602014191 30.058964084959168 9.338688404783445 7 -1 12
162 0 1 0 6.5406457130835305 27.614215786449755 8.956514144657287 7 -1 12
171 0 1 0 7.287498630869488 31.276462439032368 9.463447828309343 7 -1 12
167 0 1 0 7.231853022385951 28.841432644222323 9.14745111277867 7 -1 12
168 0 1 0 8.724360636803743 28.85703451440166 9.221776426070315 7 -1 12
172 0 1 0 8.725084220121936 31.310224508253263 9.530742126152187 7 -1 12
401 0 1 0 9.398831945690572 27.639854658964097 9.100520873722244 7 -1 12
405 0 1 0 9.459493488462593 30.05040184255474 9.44410108768187 7 -1 12
8574 0 1 0 2.201407602459286 35.00767494666799 9.724154449107312 8 -1 12
8570 0 1 0 2.285729117406903 32.55056740813976 9.354943586189977 8 -1 12
8576 0 1 0 4.351854130485596 33.76849843922669 9.691685349328633 8 -1 12
169 0 1 0 5.113775383928136 32.53133465771211 9.53506309055683 7 -1 12
8575 0 1 0 2.9586664458781993 33.78689059472461 9.63737476197223 8 -1 12
8579 0 1 0 2.914731702368523 36.27438537450542 9.876776735676735 8 -1 12
173 0 1 0 5.043511454464499 34.987642678506965 9.868800792447217 7 -1 12
8580 0 1 0 4.358194556910406 36.24156583588293 9.96325275451117 8 -1 12
413 0 1 0 9.367259569298916 34.989079526030025 9.949592858197708 7 -1 12
180 0 1 0 8.661718680209589 36.17553478038729 9.982626913650604 7 -1 12
175 0 1 0 7.259859149114202 33.75825653236775 9.80429101220235 7 -1 12
409 0 1 0 9.431267573802657 32.535364000759415 9.656350394831117 7 -1 12
179 0 1 0 7.238591806566576 36.21948449657367 9.873321814942 7 -1 12
170 0 1 0 6.572043927185273 32.523740992627026 9.616717020521737 7 -1 12
174 0 1 0 6.515061355374211 34.97801720467233 9.871395630981008 7 -1 12
8565 0 1 0 0.8446221639705681 30.101537765621572 8.854714560697776 8 -1 12
8569 0 1 0 0.8593903860317287 32.56415833643276 9.16821853645391 8 -1 12
8573 0 1 0 0.8029188798627775 35.00447045269059 9.409150787996555 8 -1 12
8312 0 1 0 0.24034225481503688 19.127613310871865 7.117814284822343 8 -1 12
8328 0 1 0 0.14777473336129562 28.881988014309062 8.631074564730014 8 -1 12
8316 0 1 0 0.253609663653305 21.572163166442735 7.519324844281008 8 -1 12
8320 0 1 0 0.1905653600640273 23.968396433713743 7.943003591266111 8 -1 12
8332 0 1 0 0.14747030768391484 31.35682077671813 8.942290983113876 8 -1 12
8336 0 1 0 0.13582561472328142 33.802230658247524 9.165481165066515 8 -1 12
8324 0 1 0 0.18131924277476913 26.438072275203194 8.24124953557802 8 -1 12
8340 0 1 0 0.0734048695107412 36.26038934164157 9.426848613503749 8 -1 12
8584 0 1 0 4.4018172121283765 38.71589618205039 10.154909059448034 8 -1 12
177 0 1 0 5.095046468461802 37.493231748725584 10.027807030649281 7 -1 12
181 0 1 0 5.045125844835794 39.92563571937882 10.374965248082603 7 -1 12
8583 0 1 0 2.9704202418044336 38.73580757784824 10.07432832460729 8 -1 12
8578 0 1 0 2.2545155061378246 37.504453367350294 9.882235378697796 8 -1 12
8582 0 1 0 2.2573955946021784 39.95826081838285 10.208740475026689 8 -1 12
8588 0 1 0 4.368888624099128 41.165642371520065 10.482286858950909 8 -1 12
8587 0 1 0 2.9464307013455566 41.17753751419306 10.511556175467907 8 -1 12
182 0 1 0 6.47083369502183 39.88004708622892 10.563099856081793 7 -1 12
178 0 1 0 6.515042544848656 37.47392022989231 10.034416611605996 7 -1 12
183 0 1 0 7.230289654945986 38.6528127979591 10.375242151866164 7 -1 12
184 0 1 0 8.657266873002456 38.65014753219266 10.533784932864611 7 -1 12
421 0 1 0 9.318803499135068 39.880460661352075 10.752723887166177 7 -1 12
417 0 1 0 9.357962161550871 37.411462749986946 10.287064253482642 7 -1 12
8592 0 1 0 4.326059965225926 43.594940449523584 10.749754229504973 8 -1 12
185 0 1 0 5.074473953340761 42.386836254613186 10.61720419322795 7 -1 12
8591 0 1 0 2.8970077471981783 43.623985655551785 10.699529670743965 8 -1 12
8586 0 1 0 2.2015453988341163 42.39059730839225 10.658460450150299 8 -1 12
8590 0 1 0 2.175223523488611 44.852326177995295 10.71903593907428 8 -1 12
187 0 1 0 7.189748568976919 41.10234552337049 10.731816098084876 7 -1 12
188 0 1 0 8.601667549032088 41.116126651514975 10.863225267049563 7 -1 12
189 0 1 0 5.069085532113367 44.787830107427894 10.837844787785224 7 -1 12
186 0 1 0 6.503833700557767 42.348076309641094 10.721237543583214 7 -1 12
190 0 1 0 6.503948156482775 44.75110433826212 10.94003596538275 7 -1 12
191 0 1 0 7.2273899562963395 43.55475258831699 11.06766602036749 7 -1 12
192 0 1 0 8.64408115099616 43.552796701206766 10.97733548272754 7 -1 12
429 0 1 0 9.342976624491092 44.769609957856055 11.071057617426654 7 -1 12
425 0 1 0 9.30803263033848 42.36224040742605 10.925693145538869 7 -1 12
8596 0 1 0 4.351599242960904 45.98728014100898 10.998333618818936 8 -1 12
197 0 1 0 5.085894280354116 49.68696542010576 11.28537155854561 7 -1 12
193 0 1 0 5.0330297596862685 47.205757711374545 11.095681768851739 7 -1 12
8600 0 1 0 4.381125814992283 48.48511265743954 11.141180721701641 8 -1 12
8595 0 1 0 2.9336155378673747 46.008874704010815 10.865197033953748 8 -1 12
8599 0 1 0 2.942127043850942 48.506888392973934 11.084572811668385 8 -1 12
8594 0 1 0 2.224083157791372 47.241596276159925 10.976240834046482 8 -1 12
8598 0 1 0 2.218711458982552 49.68361168856693 11.086601603191172 8 -1 12
194 0 1 0 6.443816474556559 47.20354650431253 11.091436757151062 7 -1 12
198 0 1 0 6.478012836912356 49.68675154925566 11.32654322576433 7 -1 12
199 0 1 0 7.194598986802897 48.43241879617664 11.33379965624819 7 -1 12
195 0 1 0 7.195145324006677 46.01695394266809 11.079386593915554 7 -1 12
200 0 1 0 8.570863639228648 48.44828559028525 11.447247759559996 7 -1 12
196 0 1 0 8.617874204786611 45.992675488381686 11.145016070162177 7 -1 12
433 0 1 0 9.272564377786622 47.223999303592606 11.3205241861828 7 -1 12
437 0 1 0 9.337415046942446 49.649799363152795 11.641324421382343 7 -1 12
8604 0 1 0 4.359401022628028 50.95304966509818 11.268259467073468 8 -1 12
8606 0 1 0 2.208261531800543 54.66997722296992 11.590602878920174 8 -1 12
8607 0 1 0 2.9112567962867613 53.38345543734894 11.485579568705985 8 -1 12
8602 0 1 0 2.216108865466603 52.16577712087078 11.302215139246897 8 -1 12
8603 0 1 0 2.947571239716398 50.92559871909284 11.282793008500175 8 -1 12
8608 0 1 0 4.329108087787857 53.400171653841035 11.602428293732197 8 -1 12
205 0 1 0 5.0534501411536645 54.62810520523982 11.795012326053971 7 -1 12
201 0 1 0 5.082812721355945 52.15344196539741 11.493225741937072 7 -1 12
445 0 1 0 9.297713472411687 54.693475934622825 12.04518310824104 7 -1 12
207 0 1 0 7.188518386146264 53.42523786101248 11.761042658348666 7 -1 12
208 0 1 0 8.638451630931353 53.42851913523099 11.891541306983807 7 -1 12
204 0 1 0 8.612168399697143 50.933160469955695 11.597221597765428 7 -1 12
441 0 1 0 9.330666531134085 52.13846733117308 11.798219641620195 7 -1 12
203 0 1 0 7.204742586471034 50.94191270727041 11.41770910985462 7 -1 12
206 0 1 0 6.475031570574467 54.63611309339153 11.902502234932642 7 -1 12
202 0 1 0 6.510635386044903 52.17589579835644 11.540366944802212 7 -1 12
8577 0 1 0 0.8539737101644809 37.47727890206578 9.683607705200327 8 -1 12
8581 0 1 0 0.8198537195137162 39.95259241397668 10.079333931533236 8 -1 12
8585 0 1 0 0.7735670689540358 42.36799254647213 10.442289069110856 8 -1 12
8597 0 1 0 0.8033108509128124 49.7538016850758 10.994610423062722 8 -1 12
8593 0 1 0 0.8280209348472449 47.24660881900088 10.883473096496566 8 -1 12
8601 0 1 0 0.7750004272691284 52.20372989556488 11.226686872106733 8 -1 12
8589 0 1 0 0.7526758452702706 44.86496126567028 10.568172260042529 8 -1 12
8605 0 1 0 0.7649137398215158 54.67234844001026 11.468901146017988 8 -1 12
8344 0 1 0 0.12366360574464752 38.73904034759799 9.685356194940974 8 -1 12
8352 0 1 0 0.07466838198454605 43.609179274543926 10.435977718344413 8 -1 12
8348 0 1 0 0.07824981059417031 41.19328654434448 10.139519476836432 8 -1 12
8364 0 1 0 0.08922847128657643 50.99061758222881 11.072232736513621 8 -1 12
8368 0 1 0 0.0772913572213619 53.45215089430332 11.253557864352883 8 -1 12
8356 0 1 0 0.06793583613584608 46.082807141924945 10.691298418249874 8 -1 12
8360 0 1 0 0.09679036680583408 48.49183219626171 10.8017035534735 8 -1 12
209 0 1 0 4.9992773214624755 57.10811401092053 12.001294824945203 7 -1 12
8616 0 1 0 4.32624417644779 58.364299963891625 12.04881712731172 8 -1 12
8612 0 1 0 4.290158615765817 55.85551121688521 11.876338661216819 8 -1 12
213 0 1 0 5.062857271655691 59.58259070885771 12.067276383168737 7 -1 12
8611 0 1 0 2.9320807710365484 55.894745791346935 11.753174603586647 8 -1 12
8615 0 1 0 2.9040920739608613 58.36511974649756 11.976334200568303 8 -1 12
8610 0 1 0 2.2361574192946154 57.13950815128023 11.805541634507373 8 -1 12
8614 0 1 0 2.163221890085063 59.56055214371204 12.069782697633752 8 -1 12
210 0 1 0 6.428219563809386 57.12068017890141 12.106812308391861 7 -1 12
214 0 1 0 6.494072120627669 59.579628505204504 12.24177616801355 7 -1 12
215 0 1 0 7.220636245095708 58.346201504967446 12.241833000077925 7 -1 12
211 0 1 0 7.165372329249884 55.93710245060277 12.054990371554338 7 -1 12
212 0 1 0 8.578492844271986 55.92015303335626 12.104856536459705 7 -1 12
216 0 1 0 8.623703744834463 58.34208583641278 12.250247433254328 7 -1 12
449 0 1 0 9.294435590195757 57.15041452736385 12.138529604862079 7 -1 12
453 0 1 0 9.353662933794839 59.57677323780945 12.29909371536123 7 -1 12
217 0 1 0 5.043412126982998 62.014305423596326 12.299550738704559 7 -1 12
8620 0 1 0 4.36398717870156 60.78947987654064 12.128811164821071 8 -1 12
8619 0 1 0 2.8648098123657553 60.80401620434669 12.161363675214178 8 -1 12
8618 0 1 0 2.151798718200312 62.06168627508569 12.28377089297454 8 -1 12
8624 0 1 0 4.38867223873964 63.24939628102391 12.265347909373308 8 -1 12
8623 0 1 0 2.944326351079389 63.288350792954496 12.286556600498521 8 -1 12
218 0 1 0 6.4525529300613576 62.03479425124177 12.354837450848748 7 -1 12
219 0 1 0 7.170228814586496 60.786457403545164 12.242277760646248 7 -1 12
223 0 1 0 7.194644446722135 63.26043613323124 12.42782416681832 7 -1 12
220 0 1 0 8.616585630085343 60.81602062708096 12.36667974936344 7 -1 12
224 0 1 0 8.61695336145591 63.2908369124692 12.46236710945955 7 -1 12
457 0 1 0 9.305736718193707 62.0704924644255 12.461391402437286 7 -1 12
8628 0 1 0 4.349974527153147 65.76438409354694 12.331914131488109 8 -1 12
221 0 1 0 5.042047587234274 64.52713827631972 12.315542950828359 7 -1 12
225 0 1 0 5.044305882991284 66.9864622833537 12.34373023596217 7 -1 12
8632 0 1 0 4.373829016885087 68.24583895465416 12.484665051458425 8 -1 12
8631 0 1 0 2.954492944449006 68.19478278212016 12.55513243165539 8 -1 12
8627 0 1 0 2.899676592885634 65.70728615872292 12.36839395145602 8 -1 12
8626 0 1 0 2.242115362144801 66.9135347432922 12.446646687387586 8 -1 12
8622 0 1 0 2.1987642657753437 64.5217484988761 12.293911673176991 8 -1 12
222 0 1 0 6.457393198856448 64.48031520126563 12.342726139079632 7 -1 12
226 0 1 0 6.469863331794013 66.95545349758079 12.364551295633444 7 -1 12
227 0 1 0 7.151498123177595 65.71877193050084 12.387745246936412 7 -1 12
231 0 1 0 7.171925044093406 68.17912721980201 12.375955084334366 7 -1 12
228 0 1 0 8.572035636829794 65.74636868963584 12.31610924236122 7 -1 12
232 0 1 0 8.576331954015334 68.2363247959889 12.39770355338696 7 -1 12
461 0 1 0 9.329315980640253 64.51051966560101 12.457008965126056 7 -1 12
465 0 1 0 9.278630242288715 66.9872188604711 12.379482868237545 7 -1 12
8635 0 1 0 2.9326300489068813 70.71723808416924 12.705899839147687 8 -1 12
8639 0 1 0 2.943938466134477 73.21624515076427 12.610604603698286 8 -1 12
8636 0 1 0 4.382957616037344 70.75598402989439 12.579162389813188 8 -1 12
8630 0 1 0 2.225258439816021 69.46643321617819 12.620129525775921 8 -1 12
8634 0 1 0 2.2584802194526885 71.99475760739077 12.636387286282975 8 -1 12
229 0 1 0 5.068397616745977 69.47275821507324 12.470271765239167 7 -1 12
8640 0 1 0 4.38757898674218 73.22364873471403 12.541062470126521 8 -1 12
233 0 1 0 5.072354134001004 71.98771766251446 12.613810381798542 7 -1 12
239 0 1 0 7.251836843327504 73.22843193168865 12.683909021725988 7 -1 12
240 0 1 0 8.690121035349712 73.21278275316463 12.571784818188068 7 -1 12
473 0 1 0 9.370271320099612 71.9844235752926 12.539258134171947 7 -1 12
236 0 1 0 8.60412530105988 70.76682624833607 12.591593277016829 7 -1 12
235 0 1 0 7.229050390420695 70.68856629244324 12.57393651686729 7 -1 12
469 0 1 0 9.273143865906821 69.48142289231329 12.471192607000377 7 -1 12
230 0 1 0 6.512337260182143 69.45001941837417 12.446128253828881 7 -1 12
234 0 1 0 6.524490239126157 71.99214446390167 12.56960188983499 7 -1 12
8617 0 1 0 0.7157026140781431 62.042190714915805 12.107640651890184 8 -1 12
8633 0 1 0 0.8129700459671775 71.97837803998421 12.623421651264968 8 -1 12
8629 0 1 0 0.8078445955327078 69.48235778526507 12.440025342954248 8 -1 12
8621 0 1 0 0.771185336297463 64.54800482325777 12.175475857057558 8 -1 12
8625 0 1 0 0.7578725814696686 66.97348572025146 12.396534805403238 8 -1 12
8609 0 1 0 0.817452581265627 57.15735219350657 11.626786466779048 8 -1 12
8613 0 1 0 0.7289802052507569 59.59799552265697 12.03313002401677 8 -1 12
8376 0 1 0 0.05325306258924716 58.398570766592115 11.658249662488599 8 -1 12
8400 0 1 0 0.07954628334157349 73.22352273603961 12.610352299720008 8 -1 12
8396 0 1 0 0.044803459711677686 70.70144935121067 12.590052210303021 8 -1 12
8384 0 1 0 0.051382046355342936 63.2556271307772 12.221296158131151 8 -1 12
8372 0 1 0 0.06545975472192822 55.922599922426194 11.490698654746087 8 -1 12
8388 0 1 0 0.03638936857228714 65.73764529402816 12.411568506364391 8 -1 12
8392 0 1 0 0.10242538002327706 68.2244158723132 12.448076019403619 8 -1 12
8407 0 1 0 2.98365997341254 78.16525828655773 12.645735280842265 8 -2 12
1 0 1 0 5.122568067080217 76.96355874339179 12.657193303394752 7 -2 12
237 0 1 0 5.10300442754345 74.44016052101419 12.66930732849595 7 -1 12
8404 0 1 0 4.414534664013386 75.69992657824618 12.607861090021693 8 -2 12
8403 0 1 0 3.051352672544793 75.70366266281295 12.559894418188545 8 -2 12
8402 0 1 0 2.32729445766439 76.91541493894705 12.557157172544827 8 -2 12
8638 0 1 0 2.242474291129191 74.46781910111358 12.535268461998887 8 -1 12
8408 0 1 0 4.400510623406021 78.16732309508387 12.613445480338463 8 -2 12
7 0 1 0 7.259064688195373 78.20025532102224 12.543365917957484 7 -2 12
8 0 1 0 8.680817818135946 78.18840611932211 12.465309880706686 7 -2 12
238 0 1 0 6.533969472528289 74.42797412469537 12.729525110611807 7 -1 12
2 0 1 0 6.548419292094186 76.98772626375036 12.667098968880728 7 -2 12
3 0 1 0 7.240430890582445 75.69976170758076 12.71854131518116 7 -2 12
4 0 1 0 8.683619319735488 75.67254143963203 12.573138135118018 7 -2 12
241 0 1 0 9.373369909446556 76.93259125861093 12.486453937700325 7 -2 12
477 0 1 0 9.357797337972203 74.44702279705245 12.585164032616698 7 -1 12
8410 0 1 0 2.273230233980862 81.8584806332095 12.451986046169797 8 -2 12
8412 0 1 0 4.401631705585671 80.66224953922375 12.43228859034548 8 -2 12
5 0 1 0 5.108654961844176 79.39875056889105 12.571385757669928 7 -2 12
9 0 1 0 5.101120463651481 81.91050586823647 12.445401077260446 7 -2 12
8406 0 1 0 2.273123599188975 79.3851428063362 12.525766984933012 8 -2 12
8411 0 1 0 2.973306829627469 80.63762142051144 12.45893338399006 8 -2 12
249 0 1 0 9.394324415380504 81.91670009817369 12.461573501559045 7 -2 12
245 0 1 0 9.356585156219928 79.4593381340345 12.412853610486941 7 -2 12
12 0 1 0 8.64983641639621 80.64888444323064 12.463059410905505 7 -2 12
11 0 1 0 7.2184993022391675 80.6473576066434 12.486147530998567 7 -2 12
6 0 1 0 6.5349054436718745 79.45744376505424 12.482145798550171 7 -2 12
10 0 1 0 6.496675145060519 81.8969451152671 12.450107988487558 7 -2 12
8420 0 1 0 4.415916416754686 85.61606974801596 12.646664921301634 8 -2 12
13 0 1 0 5.105935191859076 84.33251166859952 12.570874269466495 7 -2 12
17 0 1 0 5.191168683845786 86.81248652464468 12.72363594445191 7 -2 12
8419 0 1 0 3.01321248157668 85.59353817443939 12.553684001387852 8 -2 12
8414 0 1 0 2.2445067408425277 84.37684025398173 12.492705401567756 8 -2 12
8418 0 1 0 2.3040169225649074 86.84334901670232 12.591765394261053 8 -2 12
8415 0 1 0 2.9690720675137694 83.13670508864055 12.432223281994888 8 -2 12
8416 0 1 0 4.395307087909586 83.11919052671662 12.506190358663174 8 -2 12
14 0 1 0 6.537903942809168 84.41965211202522 12.561309126291077 7 -2 12
18 0 1 0 6.613405531810001 86.88070213118489 12.643531933288028 7 -2 12
19 0 1 0 7.300269221633986 85.64561014487732 12.739661922142245 7 -2 12
15 0 1 0 7.231687349027394 83.13162493929525 12.480073006472804 7 -2 12
257 0 1 0 9.522155345663142 86.81946335400488 12.534231749775902 7 -2 12
253 0 1 0 9.426195578054015 84.3651465006833 12.618103229217567 7 -2 12
16 0 1 0 8.652279931623529 83.11447206382608 12.536299167963037 7 -2 12
20 0 1 0 8.745842470978676 85.59445505865307 12.6971943323413 7 -2 12
21 0 1 0 5.135710310866511 89.29848957394006 12.598398598964367 7 -2 12
8424 0 1 0 4.475052838510516 88.08772573363798 12.627996219709532 8 -2 12
8428 0 1 0 4.451993629362418 90.54162286776065 12.484174192319246 8 -2 12
8423 0 1 0 3.0130591689802313 88.13174357771884 12.70985155260333 8 -2 12
8427 0 1 0 3.0452870528584466 90.59583682618552 12.550381172377065 8 -2 12
25 0 1 0 5.173997376816451 91.79263318682196 12.25539139793355 7 -2 12
8426 0 1 0 2.3544155563932283 91.81986289334623 12.420120805615083 8 -2 12
8422 0 1 0 2.3123463770835966 89.34196438745037 12.69181615212035 8 -2 12
22 0 1 0 6.598415916852851 89.32978477075362 12.659991408443686 7 -2 12
26 0 1 0 6.60940752122045 91.80246363202691 12.304474793276698 7 -2 12
23 0 1 0 7.307421156446886 88.0946222467113 12.581824398829133 7 -2 12
27 0 1 0 7.334753475253539 90.57750941553563 12.497414088974534 7 -2 12
265 0 1 0 9.457272414496998 91.78942306382636 12.082416499435645 7 -2 12
24 0 1 0 8.717513655351745 88.0770510142118 12.568606807946564 7 -2 12
261 0 1 0 9.410820608541922 89.29904970311658 12.43638211890405 7 -2 12
28 0 1 0 8.760618479562321 90.56202908414917 12.33324046626963 7 -2 12
8425 0 1 0 0.8901424156453301 91.82716782458029 12.26364623458943 8 -2 12
8409 0 1 0 0.8758810876836514 81.86718848604916 12.610921425601653 8 -2 12
8421 0 1 0 0.85274225570805 89.35185236565805 12.555206910304848 8 -2 12
8413 0 1 0 0.8291630537828016 84.35746066100538 12.438939619899678 8 -2 12
8417 0 1 0 0.8671652511926129 86.89472952041329 12.540729663290994 8 -2 12
8405 0 1 0 0.8283086040739381 79.4437115984944 12.50794532074946 8 -2 12
8637 0 1 0 0.8123624693784031 74.48665011564489 12.526928285634893 8 -1 12
8401 0 1 0 0.8847035219632566 76.94404117134269 12.484384355074306 8 -2 12
8184 0 1 0 0.13941960522690963 88.12825891425176 12.522401535762167 8 -2 12
8188 0 1 0 0.1642983276095639 90.59733984845381 12.340167842569745 8 -2 12
8180 0 1 0 0.14775603428206724 85.6176469633145 12.549142450304577 8 -2 12
8176 0 1 0 0.14431691883770306 83.1095587029357 12.613972642125574 8 -2 12
8168 0 1 0 0.12452631461043479 78.14024191486467 12.49295814375784 8 -2 12
8172 0 1 0 0.11926220592393029 80.68164666325848 12.620232525850948 8 -2 12
8164 0 1 0 0.1592842566061903 75.70950562985718 12.497698303031989 8 -2 12
36 0 1 0 8.734758615740683 95.48716695022463 11.559577769571925 7 -2 12
269 0 1 0 9.491558900359154 94.28889650426983 11.695460199249107 7 -2 12
273 0 1 0 9.47373181274781 96.67393574607209 11.275008558202233 7 -2 12
43 0 1 0 7.238295856704343 100.31668098766689 10.810903817990521 7 -2 12
40 0 1 0 8.700787779358503 97.92391890480185 11.13671382244829 7 -2 12
44 0 1 0 8.661462720168625 100.30670446646727 10.607681751243259 7 -2 12
277 0 1 0 9.38085063480213 99.09069677555485 10.722504380617051 7 -2 12
8451 0 1 0 2.9826030802105707 105.3006616837479 10.679261024401164 8 -2 12
45 0 1 0 5.0988484617539545 103.97469799733021 10.449600145320003 7 -2 12
8452 0 1 0 4.395263520979885 105.31250042501898 10.536456743302995 8 -2 12
42 0 1 0 6.502337570672804 101.49186038047058 10.591598979020677 7 -2 12
46 0 1 0 6.526928784705463 103.99539394527709 10.388326252692307 7 -2 12
52 0 1 0 8.671962050880554 105.21764858702709 10.080063718524466 7 -2 12
285 0 1 0 9.333589412827727 103.97327648178418 9.994902945746425 7 -2 12
47 0 1 0 7.242860945508908 102.70995368251629 10.410967194163122 7 -2 12
51 0 1 0 7.2787545430923375 105.21746246348701 10.295506808503657 7 -2 12
48 0 1 0 8.668657655701058 102.73564736213466 10.219318946179905 7 -2 12
281 0 1 0 9.424311574793276 101.49154557892012 10.351867731288934 7 -2 12
8459 0 1 0 2.990097734313824 110.24856793261233 10.11802057424006 8 -2 12
8454 0 1 0 2.2657554611031414 109.01526344687154 10.42486485837289 8 -2 12
8450 0 1 0 2.2817971107960986 106.55077175267039 10.707917202332839 8 -2 12
8460 0 1 0 4.4276235035427005 110.24545169406743 9.897311365259409 8 -2 12
8455 0 1 0 2.9589838613434907 107.7686626768558 10.511673640979211 8 -2 12
53 0 1 0 5.111208049245675 109.00611535607312 10.129673304384635 7 -2 12
49 0 1 0 5.101962685609895 106.52566099020541 10.457596342249758 7 -2 12
8456 0 1 0 4.387709255755883 107.75277169365587 10.356258031840127 8 -2 12
59 0 1 0 7.22310764629208 110.13541730430899 9.624672807241478 7 -2 12
293 0 1 0 9.315630693638747 108.88608039971469 9.39742167353524 7 -2 12
289 0 1 0 9.336704109887846 106.44156926453002 9.828032077829253 7 -2 12
56 0 1 0 8.597655507893608 107.70558176459315 9.786795694412396 7 -2 12
60 0 1 0 8.576935421063373 110.09420601274115 9.36074774023036 7 -2 12
55 0 1 0 7.197501239966429 107.72502577919757 10.00641357974746 7 -2 12
50 0 1 0 6.5487434841545165 106.46465015734967 10.25675285930032 7 -2 12
54 0 1 0 6.496552473337013 108.95500424872898 9.899311502373568 7 -2 12
8432 0 1 0 4.4563806783789435 93.05088516027165 12.214554798057916 8 -2 12
29 0 1 0 5.182209302852059 94.27645464182369 12.032069207247144 7 -2 12
8436 0 1 0 4.462086487899712 95.52703198643901 11.926526278077569 8 -2 12
8435 0 1 0 3.0607001647209255 95.4924872832782 12.002125666008322 8 -2 12