LAMMPS (4 Feb 2025)
OMP_NUM_THREADS environment is not set. Defaulting to 1 thread. (src/comm.cpp:99)
  using 1 OpenMP thread(s) per MPI task
# LAMMPS script for running NVT simulation

units       metal
dimension   3
boundary    p p p
atom_style  full
atom_modify map yes

newton      on

read_data   ../start.lammps-data
Reading data file ...
  orthogonal box = (0 0 0) to (154.008 148.19427 151.07317)
  16 by 8 by 12 MPI processor grid
  reading atoms ...
  11640 atoms
  reading velocities ...
  11640 velocities
Finding 1-2 1-3 1-4 neighbors ...
  special bond factors lj:    0        0        0       
  special bond factors coul:  0        0        0       
     0 = max # of 1-2 neighbors
     0 = max # of 1-3 neighbors
     0 = max # of 1-4 neighbors
     1 = max # of special neighbors
  special bonds CPU = 5.981 seconds
  read_data CPU = 6.253 seconds

pair_style  symmetrix/mace
pair_coeff  * * ../../../../00-common/models/ch2o-dens-inv_swa-1-6-8.json C H O
Loading MACE model from '../../../../00-common/models/ch2o-dens-inv_swa-1-6-8.json' ... success
  mapping LAMMPS type 1 (C) to MACE type 1
  mapping LAMMPS type 2 (H) to MACE type 0
  mapping LAMMPS type 3 (O) to MACE type 2

variable t equal step

group graphene type 1
8640 atoms in group graphene
group H2O type 2 3
3000 atoms in group H2O

thermo 1000

######### NVT equilibration for 80 ps #############

dump DUMP1 all atom 100 nvt_equi.lammpstrj
timestep 0.001
fix NVT1 H2O nvt temp 300 300 0.1
run 80000
Neighbor list info ...
  update: every = 1 steps, delay = 0 steps, check = yes
  max neighbors/atom: 2000, page size: 100000
  master list distance cutoff = 8
  ghost atom cutoff = 8
  binsize = 4, bins = 39 38 38
  1 neighbor lists, perpetual/occasional/extra = 1 0 0
  (1) pair symmetrix/mace, perpetual
      attributes: full, newton on
      pair build: full/bin
      stencil: full/bin/3d
      bin: standard
Per MPI rank memory allocation (min/avg/max) = 5.923 | 6.141 | 8.811 Mbytes
   Step          Temp          E_pair         E_mol          TotEng         Press     
         0   77.701387     -1810157.4      0             -1810040.5      359.80208    
      1000   76.306757     -1810195        0             -1810080.2      258.91549    
      2000   76.973795     -1810205.5      0             -1810089.7      290.36503    
      3000   78.14754      -1810213.4      0             -1810095.8      278.67875    
      4000   77.379263     -1810213.9      0             -1810097.5      276.18263    
      5000   77.122492     -1810211.5      0             -1810095.5      298.17136    
      6000   75.333925     -1810215.6      0             -1810102.3      275.18472    
      7000   76.678682     -1810213.1      0             -1810097.7      282.27062    
      8000   77.487935     -1810212.4      0             -1810095.8      270.64846    
      9000   76.721628     -1810210.1      0             -1810094.7      296.78442    
     10000   76.615682     -1810213.5      0             -1810098.2      292.32702    
     11000   78.265828     -1810212        0             -1810094.2      282.58856    
     12000   78.397412     -1810216.2      0             -1810098.3      271.88032    
     13000   78.148068     -1810221.2      0             -1810103.6      293.47156    
     14000   78.57788      -1810221.7      0             -1810103.4      279.87118    
     15000   79.713675     -1810219        0             -1810099.1      292.97798    
     16000   75.778263     -1810219.6      0             -1810105.6      281.93792    
     17000   76.445599     -1810217.4      0             -1810102.4      272.39394    
     18000   78.156679     -1810215.7      0             -1810098.1      284.32367    
     19000   77.404331     -1810216.3      0             -1810099.8      278.92509    
     20000   74.548043     -1810219.3      0             -1810107.1      281.23207    
     21000   78.626032     -1810217.3      0             -1810099        279.15588    
     22000   76.70906      -1810217.4      0             -1810102        276.59296    
     23000   76.279585     -1810220.7      0             -1810105.9      272.63242    
     24000   77.630303     -1810220        0             -1810103.2      285.53087    
     25000   78.260981     -1810217.8      0             -1810100        278.14708    
     26000   77.388704     -1810219.6      0             -1810103.1      282.79716    
     27000   77.512103     -1810215.4      0             -1810098.8      290.55415    
     28000   78.800588     -1810214.2      0             -1810095.7      301.7483     
     29000   78.28695      -1810218.5      0             -1810100.7      296.63677    
     30000   75.582072     -1810217.2      0             -1810103.5      287.41797    
     31000   76.640169     -1810216.8      0             -1810101.5      270.92842    
     32000   77.23602      -1810221.6      0             -1810105.4      296.04367    
     33000   77.342953     -1810217        0             -1810100.6      274.63683    
     34000   77.158571     -1810215.7      0             -1810099.6      278.68996    
     35000   77.182289     -1810216.6      0             -1810100.5      280.74653    
     36000   77.142203     -1810223        0             -1810106.9      279.49449    
     37000   77.077123     -1810218.8      0             -1810102.9      282.23821    
     38000   78.637667     -1810219        0             -1810100.7      269.21303    
     39000   79.316342     -1810217.3      0             -1810098        280.93383    
     40000   78.306415     -1810220.4      0             -1810102.6      281.92386    
     41000   78.319048     -1810218.1      0             -1810100.3      291.82497    
     42000   75.532787     -1810217.1      0             -1810103.5      275.73672    
     43000   75.719894     -1810215.5      0             -1810101.6      294.37747    
     44000   77.635582     -1810220        0             -1810103.2      270.68944    
     45000   77.793252     -1810218.9      0             -1810101.9      278.29516    
     46000   77.498189     -1810217        0             -1810100.4      288.01147    
     47000   77.106841     -1810219.7      0             -1810103.7      286.66067    
     48000   77.52555      -1810217.6      0             -1810101        267.61653    
     49000   77.360366     -1810220        0             -1810103.6      269.46242    
     50000   75.358724     -1810219.8      0             -1810106.4      292.44238    
     51000   77.041598     -1810218        0             -1810102.1      295.26931    
     52000   76.155351     -1810220.6      0             -1810106        300.77735    
     53000   76.085352     -1810219.1      0             -1810104.6      275.94532    
     54000   78.128733     -1810219.7      0             -1810102.2      274.92936    
     55000   79.425133     -1810213.8      0             -1810094.3      279.73311    
     56000   78.626717     -1810219.4      0             -1810101.1      280.26746    
     57000   76.189723     -1810220.5      0             -1810105.9      276.06142    
     58000   77.647073     -1810219.6      0             -1810102.8      292.59347    
     59000   76.440213     -1810216.3      0             -1810101.3      285.27751    
     60000   76.737061     -1810213.2      0             -1810097.8      287.6303     
     61000   75.749115     -1810219.5      0             -1810105.5      299.0871     
     62000   76.951195     -1810213.4      0             -1810097.7      279.8115     
     63000   77.36596      -1810215.4      0             -1810099.1      292.34953    
     64000   75.41524      -1810217.1      0             -1810103.7      280.76912    
     65000   75.861483     -1810217.4      0             -1810103.3      279.32712    
     66000   76.789086     -1810217.9      0             -1810102.4      301.74769    
     67000   76.259633     -1810218        0             -1810103.3      283.53888    
     68000   75.939812     -1810220.6      0             -1810106.3      280.76373    
     69000   77.837408     -1810219.1      0             -1810102        286.21171    
     70000   75.842376     -1810222.4      0             -1810108.3      279.28328    
     71000   78.209333     -1810219.2      0             -1810101.6      285.39809    
     72000   79.428577     -1810219.6      0             -1810100.1      273.50077    
     73000   77.30949      -1810216.8      0             -1810100.5      288.40407    
     74000   75.220635     -1810217        0             -1810103.8      287.70717    
     75000   78.153395     -1810218.2      0             -1810100.6      286.68008    
     76000   78.36949      -1810220.6      0             -1810102.7      274.78593    
     77000   77.79841      -1810219.2      0             -1810102.2      288.35441    
     78000   77.505994     -1810213.5      0             -1810096.9      281.42173    
     79000   75.035054     -1810216.2      0             -1810103.3      284.33161    
     80000   78.173347     -1810216.2      0             -1810098.6      279.57729    
Loop time of 81511.6 on 1536 procs for 80000 steps with 11640 atoms

Performance: 0.085 ns/day, 283.026 hours/ns, 0.981 timesteps/s, 11.424 katom-step/s
100.0% CPU use with 1536 MPI tasks x 1 OpenMP threads

MPI task timing breakdown:
Section |  min time  |  avg time  |  max time  |%varavg| %total
---------------------------------------------------------------
Pair    | 0.29084    | 5345.1     | 80990      |19109.3 |  6.56
Bond    | 0.0051276  | 0.0084163  | 0.041424   |   6.5 |  0.00
Neigh   | 0.02559    | 0.16871    | 7.4411     | 136.8 |  0.00
Comm    | 0.7108     | 2096.6     | 40490      |14939.5 |  2.57
Output  | 1.3243     | 9.5259     | 18.393     | 166.6 |  0.01
Modify  | 13.196     | 74038      | 81481      |7035.0 | 90.83
Other   |            | 22.51      |            |       |  0.03

Nlocal:        7.57812 ave         280 max           0 min
Histogram: 1401 2 109 5 4 5 2 0 3 5
Nghost:          70.86 ave        1373 max           0 min
Histogram: 1259 98 122 14 20 5 11 2 1 4
Neighs:              0 ave           0 max           0 min
Histogram: 1536 0 0 0 0 0 0 0 0 0
FullNghs:      815.418 ave       53507 max           0 min
Histogram: 1481 33 5 7 1 1 0 2 2 4

Total # of neighbors = 1252482
Ave neighs/atom = 107.60155
Ave special neighs/atom = 0
Neighbor list builds = 3783
Dangerous builds = 0

write_restart nvt_equi.restart.*
System init for write_restart ...
write_data nvt_equi_final.lammps-data
System init for write_data ...

Total wall time: 22:39:09
