LAMMPS data file via write_data, version 4 Feb 2025, timestep = 80000, units = metal

11640 atoms
3 atom types

0 150.92783999999997 xlo xhi
0 145.23038175368129 ylo yhi
0 151.07316997686289 zlo zhi

Masses

1 12.01099999691024
2 1.007999999740698
3 15.99899999588435

Atoms # full

971 0 1 0 11.536117005271837 0.5050168734360817 137.8551194524712 0 0 -1
970 0 1 0 10.876909659053691 1.6979170258840632 138.26961115353342 0 0 -1
975 0 1 0 11.636921473125371 2.936737516891087 138.37489929017968 0 0 -1
732 0 1 0 8.761730771749873 0.5078330545261361 138.4374589075292 0 0 -1
490 0 1 0 2.5624116313037146 1.5421778503447237 140.35540532685286 0 0 -1
495 0 1 0 3.3046356944713025 2.7352876749619424 140.51508068222137 0 0 -1
491 0 1 0 3.197133773540861 0.38230600158905176 139.87621006412223 0 0 -1
489 0 1 0 1.180805805286036 1.5701804052198207 140.64082048902077 0 0 -1
256 0 1 0 0.5446416213226241 2.7780031336153286 141.14264967073893 0 0 -1
252 0 1 0 0.4501249879824084 0.37086202756378345 140.42017038110282 0 0 -1
494 0 1 0 2.702838566607879 3.9259473955859896 140.94079334972747 0 0 -1
493 0 1 0 1.3218388745842968 3.9114260051354854 141.28490514958074 0 0 -1
735 0 1 0 7.479902434584128 2.837354918843438 139.47727604166465 0 0 -1
496 0 1 0 4.676216492228168 2.7111700144253446 140.2099906155309 0 0 -1
729 0 1 0 5.309457936545159 1.6157397217991891 139.62437977136358 0 0 -1
492 0 1 0 4.581205337396186 0.3998973686113526 139.54094864894964 0 0 -1
730 0 1 0 6.728828581098059 1.629994449122015 139.2861917196002 0 0 -1
731 0 1 0 7.402394637623915 0.5005388362330875 138.76708847575267 0 0 -1
734 0 1 0 6.868684548243923 4.017062553426029 139.9933875577839 0 0 -1
733 0 1 0 5.4874674937316135 3.961046412518093 140.3636009773182 0 0 -1
736 0 1 0 8.857252652195227 2.885326579088514 139.0796476409517 0 0 -1
760 0 1 0 9.59231527858866 17.164107660335173 142.97717127449638 0 0 -1
516 0 1 0 5.338560388637107 14.717087307477454 143.40662683811524 0 0 -1
973 0 1 0 9.619356344126354 4.115440365955411 139.18402613748378 0 0 -1
974 0 1 0 10.98100429149642 4.135017694159704 138.77736458916064 0 0 -1
498 0 1 0 2.772818765420915 6.45281257124261 141.4735185791675 0 0 -1
503 0 1 0 3.563112169562693 7.585303530219852 141.7094572833557 0 0 -1
499 0 1 0 3.443769995277312 5.204630919135834 141.01411728496325 0 0 -1
260 0 1 0 0.6791668258010862 5.115767149699302 141.55821909706657 0 0 -1
497 0 1 0 1.3994218924386503 6.376362808875941 141.76936080173334 0 0 -1
264 0 1 0 0.6798664051991548 7.597331695645336 142.1210697868231 0 0 -1
502 0 1 0 2.883363102761889 8.754604778867499 142.09723149039505 0 0 -1
501 0 1 0 1.4560888494767588 8.762114889325808 142.32199259057532 0 0 -1
738 0 1 0 6.968267715463019 6.415468005339354 140.62901851482886 0 0 -1
739 0 1 0 7.663709829749815 5.227425754762794 140.15027901626098 0 0 -1
743 0 1 0 7.72901324642614 7.650711270490689 140.7044210178736 0 0 -1
737 0 1 0 5.621670436773355 6.3267373409011345 141.03323384204518 0 0 -1
504 0 1 0 5.011125834013268 7.523427278874241 141.49337315824425 0 0 -1
500 0 1 0 4.838788510468607 5.10667295770926 140.81038933302236 0 0 -1
741 0 1 0 5.722117640532659 8.73640036244242 141.60581832243645 0 0 -1
742 0 1 0 7.09299172441269 8.765417385934645 141.22285344407408 0 0 -1
979 0 1 0 11.735575534706578 5.323525245751242 138.929313865778 0 0 -1
977 0 1 0 9.78260938456941 6.523982088670423 139.78910554616968 0 0 -1
740 0 1 0 8.98002213650851 5.310157415459788 139.61906017570843 0 0 -1
744 0 1 0 9.148528036297467 7.645823425844046 140.3413383330661 0 0 -1
978 0 1 0 11.125668835308682 6.529536769168466 139.37772644256486 0 0 -1
983 0 1 0 11.827847178479074 7.731694653518423 139.44761881625902 0 0 -1
982 0 1 0 11.193248322287731 8.93368171751097 140.05866439211178 0 0 -1
981 0 1 0 9.88174936127742 8.86689954921718 140.56155550855817 0 0 -1
506 0 1 0 3.023033757677858 11.11500979451662 142.77220818756604 0 0 -1
507 0 1 0 3.7174324153841987 9.890676046483875 142.3654546046778 0 0 -1
511 0 1 0 3.7639697064802555 12.35781822465177 142.91100580328023 0 0 -1
268 0 1 0 0.8488921087071651 9.924779709235699 142.8072193466972 0 0 -1
747 0 1 0 7.825286428048394 9.969813596708562 141.44928340372275 0 0 -1
746 0 1 0 7.169344574945388 11.171348217179903 141.81029381138708 0 0 -1
508 0 1 0 5.099189834465919 9.914045940557548 142.08521915253306 0 0 -1
751 0 1 0 7.944867437057473 12.3508944906384 142.04421764268815 0 0 -1
745 0 1 0 5.7972179886588115 11.156099719090777 142.10119878169607 0 0 -1
512 0 1 0 5.168627590947585 12.333263885693986 142.6413514812768 0 0 -1
985 0 1 0 9.970096411904109 11.194651200610448 141.23621834265862 0 0 -1
748 0 1 0 9.226629660646651 10.032565977223085 141.11844276846537 0 0 -1
986 0 1 0 11.33603297561089 11.1720989978026 140.89576224614873 0 0 -1
987 0 1 0 11.914980240117792 10.08662827555523 140.26389716091944 0 0 -1
991 0 1 0 12.094952929077996 12.34220275169327 141.17703931888377 0 0 -1
752 0 1 0 9.335361811991596 12.401467144096527 141.72894549196224 0 0 -1
749 0 1 0 5.89213471134893 13.566618574915728 142.81113535872825 0 0 -1
750 0 1 0 7.291796180353171 13.508592064729307 142.4827338403394 0 0 -1
755 0 1 0 8.021332717522341 14.812247423335117 142.6182372297794 0 0 -1
999 0 1 0 12.42832204272687 17.09194595696276 142.5255505943571 0 0 -1
990 0 1 0 11.48869654885041 13.564699959797442 141.63984594013252 0 0 -1
989 0 1 0 10.103385695053271 13.555671998237012 141.9512685505774 0 0 -1
995 0 1 0 12.2337314099536 14.801837216392917 141.842201855046 0 0 -1
993 0 1 0 10.184884394872883 15.951397921824936 142.5421258374048 0 0 -1
994 0 1 0 11.56322178535367 15.975654925649023 142.29605496476094 0 0 -1
756 0 1 0 9.439337601062954 14.74356279179089 142.387998952751 0 0 -1
505 0 1 0 1.6521902583181463 11.163680851483424 143.00618269364682 0 0 -1
272 0 1 0 0.9694396911883616 12.388230125014069 143.24785982318707 0 0 -1
280 0 1 0 1.2288339556544285 17.16706511464199 144.62027760933157 0 0 -1
276 0 1 0 1.0376710691704933 14.810878011347826 143.87337772683014 0 0 -1
510 0 1 0 3.132543498477026 13.562040437765267 143.28193559249132 0 0 -1
513 0 1 0 1.8445137879694433 15.947730194783038 144.13532887121056 0 0 -1
509 0 1 0 1.6725360560937235 13.585444274475382 143.41984859376237 0 0 -1
514 0 1 0 3.2754899371907493 15.881726443642998 144.14369212392128 0 0 -1
515 0 1 0 3.9409780775663443 14.705492346992132 143.62321758407484 0 0 -1
519 0 1 0 4.063666010666455 17.067200343649457 144.38312000757645 0 0 -1
520 0 1 0 5.4479818076601685 17.104344340040793 144.06724899014412 0 0 -1
759 0 1 0 8.22240483937923 17.15507922001883 143.37467852490428 0 0 -1
754 0 1 0 7.4660574868103105 15.99844122924732 143.23915448798414 0 0 -1
753 0 1 0 6.087016620646049 15.964560010476939 143.5555259515267 0 0 -1
969 0 1 0 9.498875396560868 1.694522258170253 138.5142998745832 0 0 -1
518 0 1 0 3.399987703659062 18.298937758996374 144.7738896479415 0 0 -1
517 0 1 0 2.020888787217523 18.280745276847224 144.92533270462943 0 0 -1
284 0 1 0 1.3009352413824191 19.519249934109844 145.20002908658356 0 0 -1
522 0 1 0 3.485631570351666 20.741787881776578 145.18972645865435 0 0 -1
521 0 1 0 2.0757562044598665 20.72202340624509 145.3859839898663 0 0 -1
288 0 1 0 1.4037606892380863 21.96521904116376 145.70368453418527 0 0 -1
1022 0 1 0 12.553516498280203 32.76747991875266 146.2057771022784 0 0 -1
523 0 1 0 4.166464668645025 19.522784953652927 144.85956399420567 0 0 -1
524 0 1 0 5.524802932780144 19.558007647974772 144.50789067270262 0 0 -1
757 0 1 0 6.147337738978958 18.323459200969648 144.1490090874372 0 0 -1
761 0 1 0 6.323988228544598 20.711315729673405 144.5919296115072 0 0 -1
758 0 1 0 7.542710656359456 18.345082425015928 143.8094685623312 0 0 -1
762 0 1 0 7.752770102013688 20.75386043177618 144.2630156926441 0 0 -1
528 0 1 0 5.68409023040125 21.929848546154933 144.94016515529685 0 0 -1
527 0 1 0 4.229230178493838 21.948446443451857 145.25552993773928 0 0 -1
998 0 1 0 11.842419425093686 18.27960224553287 142.93837536665015 0 0 -1
1002 0 1 0 11.980661594025817 20.65105740080031 143.67990052904875 0 0 -1
763 0 1 0 8.362377860354314 19.52893167590234 143.9094579663743 0 0 -1
764 0 1 0 9.781671400187646 19.459786728268654 143.7101960323136 0 0 -1
997 0 1 0 10.38175404833788 18.326508765701803 143.14777265904632 0 0 -1
1001 0 1 0 10.568068238615515 20.691343787312043 143.85987842547266 0 0 -1
768 0 1 0 9.87241758944675 21.934978427227257 144.14472068640822 0 0 -1
767 0 1 0 8.488473123432136 21.879390224439206 144.3857464790412 0 0 -1
526 0 1 0 3.591924338757033 23.173500770553478 145.60202965300178 0 0 -1
525 0 1 0 2.1852256112508495 23.1429142658132 145.76652399120894 0 0 -1
292 0 1 0 1.51503229701797 24.390143116339473 146.10913354255675 0 0 -1
766 0 1 0 7.812441030673651 23.130179621436785 144.7499141133126 0 0 -1
765 0 1 0 6.442699065352441 23.128942959972775 145.11386443691072 0 0 -1
532 0 1 0 5.7992168368787524 24.339743853072676 145.52917217633942 0 0 -1
769 0 1 0 6.521745128729269 25.533253323327276 145.65548610675512 0 0 -1
531 0 1 0 4.337055592510307 24.325017015100048 145.7621573778196 0 0 -1
770 0 1 0 7.911540017826229 25.52839008828348 145.3817570782766 0 0 -1
772 0 1 0 9.991007922595433 24.29185850954522 144.78105357814158 0 0 -1
1005 0 1 0 10.623217997496015 23.04874061922619 144.3594996191556 0 0 -1
1009 0 1 0 10.797215928735326 25.483101045596666 145.06452133740112 0 0 -1
1006 0 1 0 12.014648526837725 23.06100181950968 144.1568331894625 0 0 -1
771 0 1 0 8.58308417522716 24.338640031769796 144.89584842036078 0 0 -1
776 0 1 0 10.139076515754637 26.680449970348544 145.40730829786625 0 0 -1
775 0 1 0 8.713333580381244 26.660957348115833 145.61659459412934 0 0 -1
1010 0 1 0 12.216157487516119 25.497317680507056 144.75718045862754 0 0 -1
774 0 1 0 8.01994267913091 27.875653803465934 145.9090842013546 0 0 -1
1013 0 1 0 10.933187536062059 27.886106549951766 145.49878652479225 0 0 -1
1014 0 1 0 12.318292014804914 27.92448164287828 145.2866614676116 0 0 -1
780 0 1 0 10.270109568112707 29.07179709556447 145.8895038695625 0 0 -1
779 0 1 0 8.81263777249564 29.09733684035248 146.09496173931802 0 0 -1
1017 0 1 0 11.047216142606787 30.270105842400636 146.05701241190772 0 0 -1
784 0 1 0 10.372749931349876 31.49561959793274 146.41505274765424 0 0 -1
1018 0 1 0 12.420321211975088 30.289075453604685 145.86085032660745 0 0 -1
1021 0 1 0 11.107307141691395 32.76482968132972 146.4926360555354 0 0 -1
291 0 1 0 0.06366419510119861 24.467569897333284 146.31057233804037 0 0 -1
529 0 1 0 2.2559769833865273 25.5818845528138 146.28615295052057 0 0 -1
530 0 1 0 3.7081621092166324 25.49121246077537 146.1277278320959 0 0 -1
296 0 1 0 1.617922409563792 26.794712766615312 146.62204814688943 0 0 -1
295 0 1 0 0.17681755830637955 26.871636780031864 146.81086221090695 0 0 -1
536 0 1 0 5.877720814238297 26.75348367349624 146.022965044083 0 0 -1
535 0 1 0 4.466223370318974 26.713587659802155 146.33370681138265 0 0 -1
534 0 1 0 3.767819917001455 27.955746375095778 146.57502319894812 0 0 -1
533 0 1 0 2.364435785488459 27.972252002888634 146.81605933404703 0 0 -1
300 0 1 0 1.7134674481830081 29.207896866896725 147.04940686483172 0 0 -1
299 0 1 0 0.2832269835062056 29.299467079362753 147.2276862632462 0 0 -1
537 0 1 0 2.4667960242707565 30.457898746456895 146.97590463621154 0 0 -1
538 0 1 0 3.905108949294831 30.44034370299386 146.81801010817534 0 0 -1
304 0 1 0 1.867874070975554 31.680497384317647 147.29431619249743 0 0 -1
773 0 1 0 6.610627743809933 27.945819376037846 146.0165306965292 0 0 -1
540 0 1 0 5.939153384799961 29.1856640299707 146.36381554985027 0 0 -1
777 0 1 0 6.727997762219787 30.362256218737667 146.4846677323669 0 0 -1
539 0 1 0 4.561578864176216 29.198380986260524 146.66810503311495 0 0 -1
778 0 1 0 8.187196501391142 30.34196542767993 146.43912792393533 0 0 -1
544 0 1 0 6.084019693134285 31.61496337667781 146.84718939337932 0 0 -1
543 0 1 0 4.673857962754483 31.6306997741467 146.96332511550364 0 0 -1
783 0 1 0 8.942655457841509 31.565405052925097 146.59719455416774 0 0 -1
545 0 1 0 2.6813180726208117 35.366125118124266 147.7520466989106 0 0 -1
541 0 1 0 2.634226446440124 32.88263720576262 147.33270227050113 0 0 -1
307 0 1 0 0.5096930834544682 34.19344245243699 147.80330801548368 0 0 -1
308 0 1 0 1.9462321285449153 34.1235884657881 147.656537798771 0 0 -1
303 0 1 0 0.45403124009362783 31.761318677830506 147.48203848481305 0 0 -1
546 0 1 0 4.07658148733789 35.386011116226676 147.58912316685695 0 0 -1
542 0 1 0 4.0469283699743634 32.86470116124363 147.28422151539507 0 0 -1
785 0 1 0 6.960052525565341 35.246446583127025 147.42991866667643 0 0 -1
548 0 1 0 6.219233565955731 34.04021052468638 147.34628689781437 0 0 -1
547 0 1 0 4.834854300219951 34.11284447617782 147.44667467043737 0 0 -1
781 0 1 0 6.824699531446363 32.81851970174229 147.04638182998744 0 0 -1
782 0 1 0 8.31026058683821 32.77762393378586 146.9190782753666 0 0 -1
1025 0 1 0 11.194768517438032 35.26515755269695 146.63656852927764 0 0 -1
787 0 1 0 9.056580131030337 34.05580548141141 146.95589018181832 0 0 -1
786 0 1 0 8.384246940997336 35.26394491150757 147.2633351221201 0 0 -1
788 0 1 0 10.482303409818819 34.08246476498822 146.62426943343374 0 0 -1
334 0 1 0 0.3830450167749733 52.66267677343423 146.41118256590983 0 0 -1
573 0 1 0 3.225515817581858 52.58507176088437 146.85297053325527 0 0 -1
339 0 1 0 1.10976091240156 53.85032506617077 146.3076183426014 0 0 -1
340 0 1 0 2.51742961015096 53.81925359671988 146.65391824063556 0 0 -1
312 0 1 0 1.9825458533316132 36.60907309509593 147.8552665857448 0 0 -1
549 0 1 0 2.733749040622008 37.82830546524888 147.86372902833972 0 0 -1
311 0 1 0 0.5889645999889175 36.67754618131013 147.9822589622874 0 0 -1
316 0 1 0 2.0305049005723803 39.09363440377137 148.10105188309328 0 0 -1
315 0 1 0 0.6109681432979287 39.09511738212544 148.0002299469902 0 0 -1
553 0 1 0 2.7837539456365006 40.32259191385466 148.0774822384636 0 0 -1
550 0 1 0 4.144955002400675 37.77264527747196 147.79264437942416 0 0 -1
552 0 1 0 6.27874789389154 36.46801729489211 147.6180126407152 0 0 -1
551 0 1 0 4.834059105235058 36.57398823466162 147.62117527881568 0 0 -1
789 0 1 0 6.956366916362408 37.752108392442125 147.65880419497827 0 0 -1
556 0 1 0 6.278123967701844 38.95602583111425 147.7631377744316 0 0 -1
555 0 1 0 4.840946984175323 39.01400934841835 147.8842304067091 0 0 -1
554 0 1 0 4.180521121211157 40.27043326179791 147.88752521284619 0 0 -1
793 0 1 0 7.058829027851293 40.1670980838545 147.77767675681582 0 0 -1
792 0 1 0 10.524566354924797 36.48653843990894 146.92905183692795 0 0 -1
791 0 1 0 9.074198620999464 36.525476863478524 147.2505944380572 0 0 -1
1029 0 1 0 11.220841816253438 37.685309961600126 147.0747506918675 0 0 -1
796 0 1 0 10.552416757660724 38.877485059144796 147.46468124403012 0 0 -1
790 0 1 0 8.386831582508838 37.69926105166346 147.5854320735485 0 0 -1
795 0 1 0 9.146853591766021 38.90157372006349 147.5906465659679 0 0 -1
1033 0 1 0 11.352803756871133 40.14713326419614 147.60781484721778 0 0 -1
794 0 1 0 8.493477829771766 40.131044993441236 147.82248319754558 0 0 -1
557 0 1 0 2.847811994104595 42.814771397136056 147.88196200291344 0 0 -1
320 0 1 0 2.1574338502781143 41.57252531351301 148.02393574456653 0 0 -1
319 0 1 0 0.6488318067869872 41.62319625202426 147.94158094002395 0 0 -1
324 0 1 0 2.1582165238158493 44.038101531503756 147.82238790950885 0 0 -1
323 0 1 0 0.754498442066712 44.05562860115531 147.84333523131912 0 0 -1
561 0 1 0 2.942544349586902 45.27491019898747 147.7547047381443 0 0 -1
820 0 1 0 11.016451487127451 53.62494431997573 147.5756882275328 0 0 -1
815 0 1 0 9.535763334864075 51.21394678798867 147.71910628088628 0 0 -1
558 0 1 0 4.246567739219927 42.77137279919997 147.81782252035038 0 0 -1
560 0 1 0 6.343002576425634 41.42713105949393 147.7955874708925 0 0 -1
559 0 1 0 4.92775807598243 41.47079425318002 147.86634567417926 0 0 -1
797 0 1 0 7.100957168145319 42.66955297724855 147.86269567045773 0 0 -1
563 0 1 0 5.044604140324739 43.98767441763332 147.83606901230965 0 0 -1
564 0 1 0 6.419633956445066 43.923714731222546 147.83542183453042 0 0 -1
801 0 1 0 7.20961792706125 45.153382491029376 147.83770827418496 0 0 -1
562 0 1 0 4.33113215646135 45.23163809122879 147.77032122036948 0 0 -1
799 0 1 0 9.185090985535602 41.37437329587479 147.85300689677356 0 0 -1
798 0 1 0 8.490879409448366 42.65578223251543 147.87689748694726 0 0 -1
800 0 1 0 10.620018471490697 41.36819081883941 147.8272221249589 0 0 -1
1037 0 1 0 11.453908276973745 42.50490391948862 147.79723681500664 0 0 -1
804 0 1 0 10.771917920914712 43.76177358306654 147.84467828644364 0 0 -1
803 0 1 0 9.30384550053602 43.81275311906219 147.86303604877278 0 0 -1
1041 0 1 0 11.470996953781619 44.97559629231122 148.002337872778 0 0 -1
802 0 1 0 8.640205573200687 45.06751953190038 147.8790819763427 0 0 -1
331 0 1 0 0.9189694646924141 48.97693450771215 147.21524439058265 0 0 -1
326 0 1 0 0.14854107110066223 47.7549003577345 147.27333304733799 0 0 -1
332 0 1 0 2.335303218902241 48.94773624213362 147.36915655945242 0 0 -1
565 0 1 0 2.9898108031653328 47.71524874091296 147.42713927468063 0 0 -1
327 0 1 0 0.826797112960852 46.57149816768548 147.44570355521563 0 0 -1
328 0 1 0 2.2575705617307174 46.5170881037521 147.59927871415815 0 0 -1
571 0 1 0 5.166073418884075 48.846809611698255 147.53841149356714 0 0 -1
805 0 1 0 7.296698739165853 47.55411238894499 147.87082787550858 0 0 -1
568 0 1 0 6.559154492790862 46.358379112881465 147.73440572446592 0 0 -1
566 0 1 0 4.440215235844605 47.611319440759736 147.4515730915909 0 0 -1
567 0 1 0 5.119913176357698 46.342237067900555 147.6369205428965 0 0 -1
572 0 1 0 6.594933797494922 48.80159024859014 147.7278176978737 0 0 -1
1045 0 1 0 11.52765299702836 47.461523995354725 148.1149644865978 0 0 -1
806 0 1 0 8.671155437057292 47.52488394468737 147.99833008654355 0 0 -1
807 0 1 0 9.382389431756883 46.264090194227066 148.0101500533696 0 0 -1
808 0 1 0 10.763671072626673 46.228905426633 148.0682179802144 0 0 -1
811 0 1 0 9.397204334629892 48.73914041820426 147.95530493938674 0 0 -1
812 0 1 0 10.84616211433578 48.723040616171524 148.04700176217142 0 0 -1
335 0 1 0 1.056876238935509 51.415158906877565 146.76340194445413 0 0 -1
336 0 1 0 2.438403924421481 51.41249113881265 146.9413200250808 0 0 -1
330 0 1 0 0.26946163333277295 50.23134944126155 146.9544620701068 0 0 -1
569 0 1 0 3.0982041859699185 50.1394581580209 147.19924689992195 0 0 -1
579 0 1 0 5.3333858813337285 53.752752587695056 147.1333062502851 0 0 -1
574 0 1 0 4.59378545793984 52.56170525078476 147.08337840137557 0 0 -1
580 0 1 0 6.735077680013574 53.728233263091674 147.27741306173365 0 0 -1
570 0 1 0 4.478621876652017 50.09859137387988 147.36676066534335 0 0 -1
575 0 1 0 5.278244765809581 51.30852050558812 147.3004434158632 0 0 -1
813 0 1 0 7.439977632993327 52.4946565538592 147.44004055710792 0 0 -1
576 0 1 0 6.688650862718118 51.276814994456075 147.47802442751325 0 0 -1
809 0 1 0 7.294435972593453 50.01933457459591 147.68080404592288 0 0 -1
1049 0 1 0 11.592386187943536 49.93822607066782 148.00403171421252 0 0 -1
1053 0 1 0 11.693812778271035 52.38004635002362 147.7876869536671 0 0 -1
810 0 1 0 8.74622690393142 50.012170184860224 147.79459545068465 0 0 -1
816 0 1 0 10.90727467493793 51.19555570604911 147.87708841997727 0 0 -1
819 0 1 0 9.62244076172437 53.63209467484159 147.4324464477501 0 0 -1
814 0 1 0 8.848481316731897 52.466742003917204 147.57753289392673 0 0 -1
322 0 1 0 0.10418399588889217 45.304882997234216 147.61506898633124 0 0 -1
342 0 1 0 0.7084382407920179 57.379255065310815 145.2763560037339 0 0 -1
343 0 1 0 1.2899823403169264 56.20183429645129 145.75685639039412 0 0 -1
344 0 1 0 2.6462193694930574 56.23347748434523 146.1559648236497 0 0 -1
338 0 1 0 0.46139457510644966 55.03119908222209 145.81991162793102 0 0 -1
577 0 1 0 3.2683184357190855 55.04200096756792 146.7051891224275 0 0 -1
347 0 1 0 1.4543784200375405 58.5240115473357 145.01899282426587 0 0 -1
348 0 1 0 2.814699992917694 58.53378896897873 145.38591783628888 0 0 -1
581 0 1 0 3.408949165943048 57.4110705197865 145.96721178124372 0 0 -1
582 0 1 0 4.797439681865821 57.37494811899254 146.25756531322804 0 0 -1
583 0 1 0 5.400183600733326 56.22033217647436 146.71686784932302 0 0 -1
584 0 1 0 6.7897327190985575 56.167139032624156 146.9291109817803 0 0 -1
578 0 1 0 4.689756825427636 55.01166843459356 146.8686921294035 0 0 -1
587 0 1 0 5.567581773826835 58.50597696929395 145.8788840808395 0 0 -1
588 0 1 0 6.977969057462034 58.51282133811043 146.13039909566587 0 0 -1
821 0 1 0 7.556849705308644 57.30071171268739 146.65889429479057 0 0 -1
350 0 1 0 0.9144181424549748 62.13687516799353 144.1185327530414 0 0 -1
351 0 1 0 1.4973934532424644 60.90556777430432 144.47162176900213 0 0 -1
346 0 1 0 0.8419312878807145 59.701999749161025 144.5945680581879 0 0 -1
352 0 1 0 2.929110224361615 60.93146185129998 144.6825593726485 0 0 -1
589 0 1 0 3.713067896063155 62.09860135492326 144.54294141038568 0 0 -1
585 0 1 0 3.5589087577121723 59.753710624840124 145.2594204316963 0 0 -1
355 0 1 0 1.6853824707099316 63.36444995895178 143.93985814205138 0 0 -1
356 0 1 0 3.054917402480634 63.34798866458685 144.28316315347504 0 0 -1
591 0 1 0 5.769700167745654 60.86673181059818 145.2743492827327 0 0 -1
590 0 1 0 5.0707936598232575 62.08428730768492 144.88011740269795 0 0 -1
592 0 1 0 7.191084904900295 60.92933328336057 145.5976100946059 0 0 -1
586 0 1 0 4.9429500901428165 59.75311001998858 145.50309135261148 0 0 -1
825 0 1 0 7.765110770457813 59.70721664643813 146.04205466108453 0 0 -1
829 0 1 0 7.89346358735649 62.16414833982829 145.70674973603926 0 0 -1
595 0 1 0 5.792373424875803 63.290519816096456 145.06074699125264 0 0 -1
596 0 1 0 7.19373560703554 63.346320687551795 145.44083249422718 0 0 -1
1069 0 1 0 12.01191455086531 62.113132952757844 146.82588485470927 0 0 -1
832 0 1 0 11.275877402195459 60.923794879274645 146.68438715081749 0 0 -1
830 0 1 0 9.232427871232025 62.17194228986741 146.14917503280094 0 0 -1
826 0 1 0 9.181227577496715 59.6831968843053 146.33327202307535 0 0 -1
831 0 1 0 9.89636649404326 60.898550822478825 146.36516820255753 0 0 -1
835 0 1 0 9.916073619481297 63.358101609397806 146.31537949205847 0 0 -1
836 0 1 0 11.280065633423302 63.3355265112915 146.61136772329107 0 0 -1
358 0 1 0 1.0390518082840983 67.07007609566358 143.66475514158373 0 0 -1
359 0 1 0 1.7370126596380044 65.83110769466538 143.76088582759374 0 0 -1
354 0 1 0 0.9965343143484621 64.62646232814744 143.67342614131456 0 0 -1
360 0 1 0 3.141595659915158 65.83977113742438 144.07387122062 0 0 -1
597 0 1 0 3.806144310657291 67.06652437657709 144.36785032851992 0 0 -1
593 0 1 0 3.769334711259963 64.54701094816527 144.43344803892535 0 0 -1
599 0 1 0 5.772568898756368 65.82726203050427 145.1264058681804 0 0 -1
594 0 1 0 5.0928429646128865 64.59166669129222 144.93098670662178 0 0 -1
598 0 1 0 5.13757260686007 67.06354015551584 144.83059824482993 0 0 -1
600 0 1 0 7.16654802407973 65.80494504998909 145.4168164750078 0 0 -1
833 0 1 0 7.84244456248002 64.60181357919464 145.59503640523974 0 0 -1
837 0 1 0 7.91221552742429 67.03271835384416 145.56261738141896 0 0 -1
840 0 1 0 11.323581133673745 65.83622052680188 146.62210993688853 0 0 -1
838 0 1 0 9.2392758280814 67.06343278782364 146.06265529709208 0 0 -1
834 0 1 0 9.232521345906832 64.58964592520368 146.05737245298684 0 0 -1
839 0 1 0 9.959886591180172 65.83240414429258 146.3236383718743 0 0 -1
1073 0 1 0 11.963172748204146 64.56916286554538 146.8454383622014 0 0 -1
1077 0 1 0 12.004049481673679 67.06105453848313 146.86750444269214 0 0 -1
367 0 1 0 1.6991700710153508 70.83025771441547 143.8463782274096 0 0 -1
362 0 1 0 1.0366247596875278 69.60894318397442 143.67481706915203 0 0 -1
366 0 1 0 0.9300437432232364 72.07509738713604 143.93220162299764 0 0 -1
363 0 1 0 1.701938053377117 68.331571308107 143.81614052687956 0 0 -1
368 0 1 0 3.098201266877226 70.81053786292684 144.22173625079606 0 0 -1
364 0 1 0 3.052645194929254 68.30100313292638 144.28107675969807 0 0 -1
605 0 1 0 3.7418682607587552 72.06919461229914 144.50321886545697 0 0 -1
601 0 1 0 3.7252140360106396 69.57408062274195 144.37994529440886 0 0 -1
845 0 1 0 7.878605738643139 72.0184291191159 145.6894230280764 0 0 -1
602 0 1 0 5.145366534531885 69.54671027587007 144.8072928722747 0 0 -1
604 0 1 0 7.2269696699019015 68.3286078240903 145.36031480926525 0 0 -1
607 0 1 0 5.817282481391222 70.80647837345605 145.00964621849556 0 0 -1
603 0 1 0 5.798644906106345 68.33212562983242 145.00336548568714 0 0 -1
606 0 1 0 5.092771267803949 72.05694448152431 144.94681340505122 0 0 -1
608 0 1 0 7.219243232730449 70.77650934631241 145.34761614686823 0 0 -1
841 0 1 0 7.910414366089579 69.55895187468965 145.56732984951054 0 0 -1
846 0 1 0 9.179091822971143 72.02423964206132 146.14571366990467 0 0 -1
843 0 1 0 9.956703850233389 68.2845912576333 146.13575918171037 0 0 -1
847 0 1 0 9.935778478849189 70.78910604593516 146.27998302200967 0 0 -1
842 0 1 0 9.296741272223874 69.569705854545 145.98140163338402 0 0 -1
844 0 1 0 11.37492058018038 68.29335172574434 146.55389213712533 0 0 -1
848 0 1 0 11.313684238338293 70.79305940441353 146.6834246348265 0 0 -1
1085 0 1 0 11.98568113866156 72.03520611052605 146.90060283565128 0 0 -1
1081 0 1 0 12.01236426557204 69.51023255151763 146.82215725255756 0 0 -1
817 0 1 0 7.473247719476132 54.948570911569675 147.16489926526995 0 0 -1
822 0 1 0 9.030031251477764 57.32686532876822 146.86019538548138 0 0 -1
827 0 1 0 9.779135131416327 58.446597924191146 146.69770155944616 0 0 -1
828 0 1 0 11.199921687138442 58.449356583264006 147.06025910432973 0 0 -1
823 0 1 0 9.674258660981119 56.09997239396886 147.21328054812574 0 0 -1
818 0 1 0 8.890228184261904 54.89781523462379 147.24967685213375 0 0 -1
1061 0 1 0 11.850232307858917 57.24971608717267 147.36330074939428 0 0 -1
824 0 1 0 11.10321511080571 56.07847896234235 147.3520197542366 0 0 -1
1057 0 1 0 11.749214848586481 54.81668661402243 147.5619111772266 0 0 -1
1065 0 1 0 11.920036776235708 59.72527421629712 147.0438801837633 0 0 -1
371 0 1 0 1.6303981786171426 73.28239311907397 144.1623580174794 0 0 -1
370 0 1 0 0.9292480194025965 74.50530285420983 144.21011035933023 0 0 -1
372 0 1 0 3.0243507000041947 73.29025982646537 144.44745927751 0 0 -1
375 0 1 0 1.6252922002980006 75.80017139940105 144.3376951479288 0 0 -1
376 0 1 0 3.006482108119552 75.8041122513541 144.645313736639 0 0 -1
374 0 1 0 0.8192377165886606 77.00581364938964 144.4151153672098 0 0 -1
609 0 1 0 3.684753881293219 74.5297747649935 144.738211281206 0 0 -1
613 0 1 0 3.6255781109768885 77.00146442668331 145.0073060785436 0 0 -1
610 0 1 0 5.097783146673759 74.46792162440487 145.18362742630077 0 0 -1
611 0 1 0 5.773856498531317 73.27482902855476 145.2018339316757 0 0 -1
615 0 1 0 5.690257857453819 75.76362645065788 145.55573637248287 0 0 -1
612 0 1 0 7.180206697486668 73.26969325875898 145.61428264869656 0 0 -1
616 0 1 0 7.071397739913379 75.67880627842992 145.92286695641397 0 0 -1
614 0 1 0 4.976636197101801 77.02928426072704 145.4367362773665 0 0 -1
853 0 1 0 7.730375857440068 76.91667622369528 146.3168656529385 0 0 -1
849 0 1 0 7.84877767833418 74.44566572534744 145.99390349044407 0 0 -1
850 0 1 0 9.196633579500045 74.43081036738552 146.45030343562203 0 0 -1
855 0 1 0 9.790724424479492 75.62992681287511 146.9100355193944 0 0 -1
851 0 1 0 9.873958823156721 73.27002447872172 146.54188535164292 0 0 -1
856 0 1 0 11.182696888709675 75.6483769835468 147.25484248084945 0 0 -1
852 0 1 0 11.237605163420183 73.2264386139431 146.9326779398952 0 0 -1
854 0 1 0 9.061892130573096 76.88925927363547 146.75722934866553 0 0 -1
1093 0 1 0 11.861690679187324 76.85972528955138 147.64805606789582 0 0 -1
1089 0 1 0 11.90875339955334 74.45628132373473 147.31002359607572 0 0 -1
378 0 1 0 0.7987656064581046 79.47570772236165 144.82788044596091 0 0 -1
379 0 1 0 1.5096285911186975 78.23600327534864 144.70112396355682 0 0 -1
383 0 1 0 1.4488144096853128 80.63859306801459 145.3277077733343 0 0 -1
380 0 1 0 2.902072632058755 78.22988583152728 145.01117506784965 0 0 -1
384 0 1 0 2.9031780332844384 80.6483012045666 145.61239735734156 0 0 -1
617 0 1 0 3.6541569428056215 79.47208742793767 145.41174101853176 0 0 -1
382 0 1 0 0.6906190973510615 81.79961022635054 145.62940385586063 0 0 -1
621 0 1 0 3.4696519141979403 81.87557851184421 146.1269513310728 0 0 -1
618 0 1 0 5.017505872147957 79.45753729767821 145.7334093018634 0 0 -1
619 0 1 0 5.6800063148255076 78.21935318986891 145.85379724898593 0 0 -1
623 0 1 0 5.577498150392815 80.55709972911944 146.4581502473969 0 0 -1
624 0 1 0 6.976619142732934 80.57653390654522 146.84164964214855 0 0 -1
620 0 1 0 7.040121363479216 78.14440765670021 146.36629174644918 0 0 -1
857 0 1 0 7.749337773687641 79.34005417627544 146.70485957700845 0 0 -1
622 0 1 0 4.849855552066796 81.78477838986171 146.54012057699754 0 0 -1
860 0 1 0 11.1261385497377 78.07350336321984 147.63402139833593 0 0 -1
858 0 1 0 9.046629840858488 79.29892023329991 147.20511029178053 0 0 -1
859 0 1 0 9.756197281679933 78.12151122341879 147.1655330608338 0 0 -1
863 0 1 0 9.717051546823408 80.53823831815369 147.54955686737662 0 0 -1
1097 0 1 0 11.817128311913079 79.3005893971551 147.9551993555642 0 0 -1
864 0 1 0 11.063404305446204 80.51081488973759 147.9534869296489 0 0 -1
387 0 1 0 1.3106087740901307 82.92559566041083 146.20357278442071 0 0 -1
386 0 1 0 0.4730621296891183 84.06171347057042 146.48463838692888 0 0 -1
391 0 1 0 1.0533966416214406 85.21712922778988 147.03047392192897 0 0 -1
388 0 1 0 2.668583503197402 82.97140343952407 146.48097824993079 0 0 -1
392 0 1 0 2.443248219362896 85.23773695623234 147.35458999102184 0 0 -1
625 0 1 0 3.2842476018632856 84.03207663143658 147.13643651620092 0 0 -1
627 0 1 0 5.4462611101340075 82.93103184768533 147.1266448705918 0 0 -1
861 0 1 0 7.602872997537641 81.78999874016725 147.2474095885985 0 0 -1
626 0 1 0 4.66678573245224 84.0563242352223 147.40959971823594 0 0 -1
628 0 1 0 6.810215790655627 82.91746197478633 147.42752186779316 0 0 -1
862 0 1 0 9.03756342682916 81.75377636071046 147.52417667707525 0 0 -1
1101 0 1 0 11.760288845469066 81.77105949271255 148.20091915959583 0 0 -1