LAMMPS data file via write_data, version 4 Feb 2025, timestep = 80000, units = metal

11640 atoms
3 atom types

0 153.930996 xlo xhi
0 148.12016996204537 ylo yhi
0 151.07316997686289 zlo zhi

Masses

1 12.01099999691024
2 1.007999999740698
3 15.99899999588435

Atoms # full

4593 0 1 0 3.6182777379968485 1.313350209023034 43.79965048143306 1 0 1
4858 0 1 0 9.29691914581909 15.98841488951375 42.289284877087695 1 0 1
4356 0 1 0 2.9066067838303473 0.036149029224047606 44.119846873518235 1 0 1
4599 0 1 0 5.734474054320696 2.468451087580839 43.36737742717602 1 0 1
4594 0 1 0 5.064880335358699 1.2498115704928716 43.66679911531976 1 0 1
4360 0 1 0 2.905482155290801 2.5400489247797657 43.71283793776917 1 0 1
4598 0 1 0 4.9989463465351145 3.7051088423798477 43.35357165805533 1 0 1
4597 0 1 0 3.5806484194111845 3.751836865292012 43.575176318624635 1 0 1
4861 0 1 0 7.930718033273262 18.494638485687712 42.1076970593856 1 0 1
4359 0 1 0 1.4470859388536816 2.5668518782139276 43.9687652090793 1 0 1
4354 0 1 0 0.7722313492974088 1.3313101649778107 44.242626224585955 1 0 1
4834 0 1 0 9.32917387329138 1.2056590935298346 42.998097089651125 1 0 1
4358 0 1 0 0.7747898078392355 3.765458594469217 44.02326949443136 1 0 1
4833 0 1 0 7.8526781701236095 1.2102851799394547 43.16006531863013 1 0 1
4838 0 1 0 9.340201578314497 3.646804804032694 43.07620092191181 1 0 1
4620 0 1 0 7.144972675293774 14.829827015750832 42.39446390480339 1 0 1
4837 0 1 0 7.923032567811143 3.646153870164162 43.19675853239323 1 0 1
4600 0 1 0 7.175292439428342 2.445510553274801 43.25921106395937 1 0 1
4607 0 1 0 5.769748352111046 7.391357455331852 43.10019583402434 1 0 1
4603 0 1 0 5.739591091433505 4.921468272897704 43.25814945626847 1 0 1
4605 0 1 0 3.6095621159615447 8.677478554639604 43.13188285675957 1 0 1
4606 0 1 0 5.0285254287910455 8.6335016476394 43.07709768502469 1 0 1
4602 0 1 0 5.046909053362973 6.15200785186419 43.28772650616633 1 0 1
4601 0 1 0 3.58246255305692 6.184631001107102 43.30994282619385 1 0 1
4368 0 1 0 2.8853686351702073 7.460165762531516 43.257223572169146 1 0 1
4364 0 1 0 2.8992923654324443 4.995066907789181 43.655714280825414 1 0 1
4367 0 1 0 1.5084605510572755 7.437266681352133 43.39377610180735 1 0 1
4363 0 1 0 1.4694877358213196 4.984389252170924 43.76286899390094 1 0 1
4846 0 1 0 9.261137466873125 8.57828547620137 42.74723449236833 1 0 1
4624 0 1 0 7.165661073218569 17.27513691500376 42.2440609018806 1 0 1
4842 0 1 0 9.30654033737628 6.188969842473727 42.94938017250802 1 0 1
4378 0 1 0 0.7493285132882492 15.99802082794084 42.23998499652978 1 0 1
4845 0 1 0 7.885472468263241 8.60926181367735 42.83996253035643 1 0 1
4841 0 1 0 7.858633832589979 6.129467572944587 43.11590396359615 1 0 1
4608 0 1 0 7.18027652237216 7.386825675430506 42.97300421503098 1 0 1
4604 0 1 0 7.198206813120652 4.865641404971523 43.19211901536986 1 0 1
4614 0 1 0 5.054693586030772 13.573099708430208 42.591510181485845 1 0 1
4615 0 1 0 5.809563514279803 12.306661257439957 42.58442819579602 1 0 1
4613 0 1 0 3.64893128027892 13.62572758652549 42.64764326072218 1 0 1
4610 0 1 0 5.083649343959765 11.102034468574034 42.75476016787003 1 0 1
4376 0 1 0 2.951525812149517 12.411401729682067 42.85320304640648 1 0 1
4372 0 1 0 2.934792114367793 9.96505008565714 42.98818253400395 1 0 1
4611 0 1 0 5.74818464396869 9.807043520099594 42.83597512338702 1 0 1
4609 0 1 0 3.65241006278186 11.15806169100843 42.8982088307915 1 0 1
4375 0 1 0 1.499500714163183 12.337137292383325 42.87294367718005 1 0 1
4371 0 1 0 1.4976728157691097 9.918344945702955 43.08732465170207 1 0 1
4612 0 1 0 7.1532741214900195 9.864037869748469 42.75544172056395 1 0 1
4366 0 1 0 0.7606137190118365 8.658492159047215 43.299782614374934 1 0 1
4850 0 1 0 9.31533909466519 11.07552202027713 42.48674790466874 1 0 1
4849 0 1 0 7.888776552266017 11.04761969617532 42.539183295732094 1 0 1
4370 0 1 0 0.7663668868280099 11.106956755528984 43.0249035834426 1 0 1
4854 0 1 0 9.349822339051668 13.54165905306356 42.32882973416388 1 0 1
4616 0 1 0 7.229443364016211 12.329732778226084 42.49809125926552 1 0 1
4853 0 1 0 7.931087988818115 13.568964476823794 42.38126850028937 1 0 1
4384 0 1 0 2.860311643546024 17.30443924262705 42.17572536794324 1 0 1
4617 0 1 0 3.619832724921893 16.06975715398811 42.41374372670845 1 0 1
4618 0 1 0 5.031502731363432 16.05769862064218 42.407215106391455 1 0 1
4623 0 1 0 5.734292002024462 17.267838291618194 42.20991562484501 1 0 1
4380 0 1 0 2.9216872799027844 14.850244921453386 42.50452660894383 1 0 1
4619 0 1 0 5.743181796232439 14.841531133747774 42.51348318389072 1 0 1
4383 0 1 0 1.431428742088927 17.271256836667472 42.06902432020814 1 0 1
4379 0 1 0 1.5104440976907678 14.821210506650313 42.49377481998361 1 0 1
4374 0 1 0 0.7809093512788547 13.580397556733496 42.717626318190035 1 0 1
4362 0 1 0 0.8063553414387996 6.204812962829149 43.72181429850824 1 0 1
4857 0 1 0 7.848848715083926 16.034825369536545 42.32713717791012 1 0 1
4622 0 1 0 5.062305419075844 18.485012815700813 42.127703423929866 1 0 1
4621 0 1 0 3.615847335818507 18.50592487756267 42.13710068861613 1 0 1
4355 0 1 0 1.486505893222241 0.11620115738426333 44.37334624472206 1 0 1
4382 0 1 0 0.7188080713893515 18.49018549230756 41.87050799338018 1 0 1
4862 0 1 0 9.316374213336921 18.437188451114835 42.20781464385719 1 0 1
4392 0 1 0 2.898619844348182 22.14187377488053 41.58085481071149 1 0 1
4626 0 1 0 4.995574983222083 20.93603878467678 41.90825429102141 1 0 1
4631 0 1 0 5.704573216571985 22.20864761146378 41.86208652259394 1 0 1
4388 0 1 0 2.8809972854776977 19.70216566161529 41.98995317951231 1 0 1
4625 0 1 0 3.6041673989959326 20.953561574984015 41.840345910327166 1 0 1
4406 0 1 0 0.7216918377648203 33.35413324745923 41.46384251706964 1 0 1
4386 0 1 0 0.7286760574816928 20.916648398861096 41.65350283221802 1 0 1
4627 0 1 0 5.713404276149383 19.70726650966204 41.92547774911505 1 0 1
4391 0 1 0 1.4694113962193573 22.172541234199354 41.53398319105687 1 0 1
4387 0 1 0 1.4439770576092463 19.686913280692888 41.917275002045145 1 0 1
4632 0 1 0 7.131892487231097 22.209721002001675 41.74264394952121 1 0 1
4398 0 1 0 0.7503341199247907 28.362057115316635 41.35445459961166 1 0 1
4410 0 1 0 0.6741431853151176 35.781702992517644 41.575414160395496 1 0 1
4890 0 1 0 9.252708233635001 35.777504662072054 42.09019327996547 1 0 1
4865 0 1 0 7.8530701911931535 20.99900685041697 41.92339368263308 1 0 1
4866 0 1 0 9.257890202030383 20.94125435050056 41.941538823756886 1 0 1
4402 0 1 0 0.6917799209264703 30.880798125755394 41.4330080048325 1 0 1
4628 0 1 0 7.176789639055505 19.774072141304618 41.980586053741696 1 0 1
4396 0 1 0 2.8630646390086287 24.64115066521789 41.51189653268178 1 0 1
4633 0 1 0 3.540433430609563 25.86824413603069 41.52433540649917 1 0 1
4629 0 1 0 3.6302581378502228 23.419307905994987 41.60202809468561 1 0 1
4400 0 1 0 2.847956041270948 27.11735225133449 41.423250614471364 1 0 1
4634 0 1 0 4.990374529623196 25.88087128770939 41.617150992184506 1 0 1
4630 0 1 0 5.050202732705738 23.463448552919292 41.73991346071401 1 0 1
4639 0 1 0 5.714384861277345 27.106656409692164 41.45319270456196 1 0 1
4635 0 1 0 5.754460178870783 24.700632204646702 41.62350687743679 1 0 1
4395 0 1 0 1.470644949176969 24.578971200654948 41.34700999085713 1 0 1
4399 0 1 0 1.4153216802250277 27.119540148943706 41.3409866601241 1 0 1
4873 0 1 0 7.903465023522579 25.956253498859162 41.477751388977936 1 0 1
4640 0 1 0 7.132539024316219 27.14706737784988 41.36153274608134 1 0 1
4869 0 1 0 7.911952860604421 23.41866310057407 41.64102284038603 1 0 1
4636 0 1 0 7.184929288613168 24.713683215890832 41.56956409516263 1 0 1
4870 0 1 0 9.335265031030012 23.39498577505064 41.7070768602296 1 0 1
4886 0 1 0 9.265613191634499 33.289211616470084 41.928561867790734 1 0 1
4390 0 1 0 0.7633655153185633 23.36389756870141 41.370990879904554 1 0 1
4874 0 1 0 9.32584308393028 25.919833954375076 41.522312724709735 1 0 1
4404 0 1 0 2.8430150801169582 29.582352058669798 41.35009653439134 1 0 1
4643 0 1 0 5.715282232949137 29.55941113429796 41.30398570427768 1 0 1
4637 0 1 0 3.536265080760981 28.372068246894294 41.38611535515196 1 0 1
4642 0 1 0 5.02140607119488 30.872074361158372 41.35006438630021 1 0 1
4641 0 1 0 3.591312264760747 30.807932051325356 41.33946480827893 1 0 1
4638 0 1 0 4.943071355248361 28.385469549037005 41.40930428703996 1 0 1
4403 0 1 0 1.4058808544255017 29.643544674063847 41.42627612696362 1 0 1
4881 0 1 0 7.86495686096847 30.82505978626349 41.50257576919664 1 0 1
4644 0 1 0 7.146616248365255 29.56710016926428 41.344098737426606 1 0 1
4877 0 1 0 7.905884092935138 28.390235612088322 41.37527693026204 1 0 1
4394 0 1 0 0.7575646515994141 25.882791357023276 41.326025265944246 1 0 1
4882 0 1 0 9.264398108406091 30.879028520828903 41.61476556215903 1 0 1
4878 0 1 0 9.372896427903862 28.404371627822556 41.34017436413926 1 0 1
4412 0 1 0 2.8512105786603112 34.58203340203412 41.60309387063995 1 0 1
4646 0 1 0 4.935122729899819 33.32761372423786 41.66987740289004 1 0 1
4408 0 1 0 2.8344346984853956 32.05941399282743 41.4393368731407 1 0 1
4649 0 1 0 3.523416239732269 35.84983059993486 41.61558767621987 1 0 1
4647 0 1 0 5.666846827772014 32.12050715589851 41.549016058248355 1 0 1
4645 0 1 0 3.495964910914316 33.30994552129594 41.54716381798435 1 0 1
4650 0 1 0 4.987154804207865 35.808495275873746 41.680656981465695 1 0 1
4651 0 1 0 5.665686933217244 34.58002238803243 41.78186971520942 1 0 1
4411 0 1 0 1.4165100294947222 34.59450091625184 41.55002213546288 1 0 1
4407 0 1 0 1.4116353877582881 32.1147108348903 41.48497681727924 1 0 1
4648 0 1 0 7.1312503696498055 32.09129071552862 41.61663933365854 1 0 1
4652 0 1 0 7.060544951680459 34.576520782366345 41.8435096471704 1 0 1
4885 0 1 0 7.848245872258489 33.33295928248542 41.81688722625957 1 0 1
4889 0 1 0 7.799570583073807 35.79128889074471 41.95302533735737 1 0 1
4655 0 1 0 5.635128047476899 37.04255696129742 41.889063519874185 1 0 1
4416 0 1 0 2.78797050012384 37.04531114416463 41.668720059349 1 0 1
4654 0 1 0 4.962900069446359 38.27080807195672 41.98140790724099 1 0 1
4653 0 1 0 3.4984475317955663 38.30103896219588 41.86276217939295 1 0 1
4657 0 1 0 3.4859204099235424 40.77928029075275 42.15721833285034 1 0 1
4420 0 1 0 2.7895004318783534 39.55178277813571 42.014607944680016 1 0 1
4659 0 1 0 5.594385010097973 39.50764695566842 42.331702733782116 1 0 1
4658 0 1 0 4.86241065352926 40.76616533720146 42.394402631782036 1 0 1
4415 0 1 0 1.4033912934083663 37.03083059073636 41.63331146417011 1 0 1
4419 0 1 0 1.3394390068398785 39.54057042496575 41.89663747933995 1 0 1
4442 0 1 0 0.6602330505241705 55.539974883436415 44.147544023800336 1 0 1
4898 0 1 0 9.176710663898895 40.75268986823678 42.429064088127966 1 0 1
4897 0 1 0 7.7631936504616155 40.75066523823933 42.43665335619366 1 0 1
4434 0 1 0 0.6782416137679727 50.57097935965511 43.449638855704336 1 0 1
4414 0 1 0 0.6471127581516054 38.30905692353261 41.733392276542965 1 0 1
4894 0 1 0 9.15465311239913 38.26198375045849 42.3782536693794 1 0 1
4893 0 1 0 7.7740081924901805 38.26004223757791 42.235082090217404 1 0 1
4660 0 1 0 7.04347009111344 39.5018368926718 42.3844785873127 1 0 1
4428 0 1 0 2.7663146791762734 44.46639221184069 42.6925240371937 1 0 1
4663 0 1 0 5.627119898132762 41.97868646203017 42.697159240142284 1 0 1
4424 0 1 0 2.8067326116278415 42.00776873675463 42.35746944634011 1 0 1
4666 0 1 0 4.890927100344503 45.644816608118 42.984266192629704 1 0 1
4667 0 1 0 5.634674408191034 44.418993376692775 42.817029340138006 1 0 1
4661 0 1 0 3.4834817400856415 43.25823610062904 42.5607856913108 1 0 1
4662 0 1 0 4.902209288280696 43.22789240567322 42.68126931073023 1 0 1
4665 0 1 0 3.488897144573726 45.67529544800126 42.95285701794862 1 0 1
4427 0 1 0 1.3443217915767338 44.446218287146145 42.65585950195445 1 0 1
4423 0 1 0 1.3633861555848386 41.99556878676393 42.23856486648184 1 0 1
4418 0 1 0 0.6404904201709731 40.81206274543574 42.07024219545774 1 0 1
4668 0 1 0 7.051792569726381 44.4558171504528 42.77313827475413 1 0 1
4438 0 1 0 0.7104396345054916 53.064439815624965 43.91591036798498 1 0 1
4906 0 1 0 9.208865713105146 45.62988667754793 42.914450025601525 1 0 1
4905 0 1 0 7.743521802936585 45.64827532681255 42.920966647627566 1 0 1
4901 0 1 0 7.7876936688026905 43.225188196558726 42.56744623434785 1 0 1
4902 0 1 0 9.266310898347312 43.190529046312044 42.5740050512068 1 0 1
4664 0 1 0 7.081931452956923 41.97394455772604 42.62845214443267 1 0 1
4436 0 1 0 2.821960974159505 49.39431079415976 43.26794517231939 1 0 1
4671 0 1 0 5.652346197812545 46.8935782865718 43.07036288568867 1 0 1
4670 0 1 0 4.971346020479086 48.108902474465 43.2405426428837 1 0 1
4432 0 1 0 2.8143388231466537 46.92622714830329 43.11659688068081 1 0 1
4669 0 1 0 3.5557532660827325 48.13085270368852 43.22307543049331 1 0 1
4675 0 1 0 5.666595722517895 49.36927052338281 43.23727163120699 1 0 1
4431 0 1 0 1.374489985437302 46.90239035566691 43.12682756031663 1 0 1
4435 0 1 0 1.4014508509683934 49.36540366712176 43.26160793405645 1 0 1
4422 0 1 0 0.6277231950892933 43.2322793301397 42.397381055125656 1 0 1
4914 0 1 0 9.18611421510112 50.55319453239782 43.15988650757723 1 0 1
4910 0 1 0 9.262246814921902 48.06908817994763 43.16631156239544 1 0 1
4909 0 1 0 7.789727009121267 48.109925777209064 43.16794204404838 1 0 1
4672 0 1 0 7.0358810221777075 46.878696888990916 43.09442701695119 1 0 1
4676 0 1 0 7.065695036182996 49.37732468318507 43.26818620469652 1 0 1
4440 0 1 0 2.8275928486683513 51.87909636580214 43.50397129217607 1 0 1
4683 0 1 0 5.693323097229615 54.33043374350147 43.66298262078002 1 0 1
4444 0 1 0 2.85043717387208 54.34170355663828 43.80508059341925 1 0 1
4679 0 1 0 5.693354644557759 51.83543434555006 43.40049483114594 1 0 1
4677 0 1 0 3.5851914109841494 53.121315303510876 43.60788571909582 1 0 1
4678 0 1 0 4.99894967614583 53.13611769079024 43.54550335833214 1 0 1
4673 0 1 0 3.5599661282509003 50.65715265409168 43.40023216553813 1 0 1
4674 0 1 0 4.953994668636567 50.63714290360607 43.31704441427234 1 0 1
4443 0 1 0 1.3712846666584377 54.3439785530592 43.95536222136454 1 0 1
4439 0 1 0 1.4053207970356407 51.86857462688182 43.592028568114166 1 0 1
4684 0 1 0 7.146142304716294 54.306153177312986 43.56961863040251 1 0 1
4917 0 1 0 7.780246646701003 53.04848453494338 43.45660830941302 1 0 1
4426 0 1 0 0.6500531502542238 45.69379092870948 42.80325174673961 1 0 1
4430 0 1 0 0.6643244487338726 48.157717460185765 43.23487252035365 1 0 1
4918 0 1 0 9.24657134331717 53.0411118656031 43.4804174067805 1 0 1
4680 0 1 0 7.11367285767236 51.85220901403964 43.389732192229985 1 0 1
4913 0 1 0 7.817506314440732 50.576688008617964 43.29975009491041 1 0 1
4656 0 1 0 7.083035938927246 37.05510932051064 42.03858516847202 1 0 1
4691 0 1 0 5.6735168478650015 59.25769629860014 44.11505791094082 1 0 1
4687 0 1 0 5.667713653270816 56.78493695096174 43.89086168374148 1 0 1
4686 0 1 0 4.954449459980658 58.053085490638075 44.02288754118255 1 0 1
4470 0 1 0 0.61823493532228 72.8009866355743 44.76521906825229 1 0 1
4685 0 1 0 3.507202827610911 58.00054258409213 44.07186471823106 1 0 1
4452 0 1 0 2.7627491347974025 59.22643668261575 44.12343001373091 1 0 1
4458 0 1 0 0.7403308657818082 65.38771993611475 44.719594988698866 1 0 1
4448 0 1 0 2.795444577550637 56.74046843108766 44.027589702227424 1 0 1
4447 0 1 0 1.3920785034497993 56.7271079858854 44.12361396409531 1 0 1
4451 0 1 0 1.3587003310162356 59.2007648201823 44.35922592596185 1 0 1
4692 0 1 0 7.067895387790395 59.20134184456905 44.11946236197767 1 0 1
4475 0 1 0 1.3333143645646983 74.05915849680913 44.92853810493092 1 0 1
4925 0 1 0 7.7970972069521975 57.992361504341424 44.057634912468004 1 0 1
4926 0 1 0 9.248166793316937 57.9949919765834 44.113921043194125 1 0 1
4446 0 1 0 0.6899271119744377 57.94307617723541 44.31356701458811 1 0 1
4688 0 1 0 7.115451978164412 56.77033577971911 43.90978166933161 1 0 1
4462 0 1 0 0.6996362971442436 67.86971808913493 44.63979944291686 1 0 1
4450 0 1 0 0.6972020300219038 60.466432762171955 44.458315504537666 1 0 1
4695 0 1 0 5.689133480836044 61.6903570156974 44.23239568979798 1 0 1
4460 0 1 0 2.826762202703018 64.1625702567694 44.50787559506158 1 0 1
4694 0 1 0 4.97194337863697 62.912408621145694 44.38289567900791 1 0 1
4699 0 1 0 5.635767717678406 64.14540626653528 44.39360072832066 1 0 1
4693 0 1 0 3.532168161726612 62.92487944455152 44.45296160629851 1 0 1
4690 0 1 0 4.985543416859475 60.49447553807886 44.09579711880336 1 0 1
4456 0 1 0 2.8423185811119978 61.69086484999942 44.36983218236579 1 0 1
4689 0 1 0 3.5513388011573883 60.46472821495493 44.226449598213044 1 0 1
4459 0 1 0 1.4051483818210533 64.16966117243719 44.6573533738237 1 0 1
4455 0 1 0 1.3854354287318256 61.68837740222376 44.41175890445348 1 0 1
4696 0 1 0 7.117235986791311 61.67715536972032 44.23724016530228 1 0 1
4930 0 1 0 9.252182913228266 60.456234461974056 44.20481349777122 1 0 1
4466 0 1 0 0.66558924724998 70.31179308236902 44.6883222164538 1 0 1
4934 0 1 0 9.241707921185554 62.92224928521099 44.32434943742673 1 0 1
4700 0 1 0 7.1045697968947135 64.16452195450148 44.319661741856024 1 0 1
4933 0 1 0 7.805359982469433 62.954588251129366 44.38289567542992 1 0 1
4715 0 1 0 5.634279511411092 74.04036885585235 45.114470486154886 1 0 1
4929 0 1 0 7.834789021076321 60.4308647088018 44.214012365213776 1 0 1
4702 0 1 0 4.972465916984487 67.882603340342 44.526108998440804 1 0 1
4703 0 1 0 5.694015064198499 66.65643488576535 44.47940523276244 1 0 1
4698 0 1 0 4.96389484117205 65.4235626785736 44.44371790745404 1 0 1
4701 0 1 0 3.566092495857593 67.88587307582918 44.553130788895 1 0 1
4464 0 1 0 2.866865555972927 66.65739074585645 44.577479932494846 1 0 1
4697 0 1 0 3.5708972283735063 65.39095006117151 44.584943498837546 1 0 1
4707 0 1 0 5.67612875718026 69.1101072686242 44.577388233872014 1 0 1
4468 0 1 0 2.8048594282924197 69.13585444676642 44.72593797162035 1 0 1
4463 0 1 0 1.4137523094438529 66.63881023598147 44.611654569442166 1 0 1
4467 0 1 0 1.414054280610806 69.10398962281081 44.702080294653044 1 0 1
4942 0 1 0 9.2776283164323 67.84672024047809 44.57181775481479 1 0 1
4454 0 1 0 0.7230562710576749 62.91052790116321 44.64010281583729 1 0 1
4941 0 1 0 7.81683902746139 67.87886298675222 44.494312017543656 1 0 1
4938 0 1 0 9.243212186732757 65.42563817296514 44.49389558881784 1 0 1
4704 0 1 0 7.115542123520449 66.65457858609052 44.34673545723655 1 0 1
4937 0 1 0 7.831510938266588 65.42337521329944 44.388407233440255 1 0 1
4710 0 1 0 4.982411353136815 72.76825722483211 44.99579047065947 1 0 1
4711 0 1 0 5.6982365566646145 71.55216028501081 44.82882149251149 1 0 1
4706 0 1 0 4.962017140985055 70.3056559742787 44.69410267563235 1 0 1
4709 0 1 0 3.5333488852055894 72.76423176491865 44.96931965541603 1 0 1
4705 0 1 0 3.534989133816252 70.35494903699954 44.792712392464466 1 0 1
4472 0 1 0 2.8154169768121404 71.57842044490617 44.81966814363108 1 0 1
4471 0 1 0 1.348151054270308 71.5708255724953 44.6952847045477 1 0 1
4708 0 1 0 7.128902498495983 69.12208182878865 44.62897501982966 1 0 1
4945 0 1 0 7.838182294845049 70.33076832515545 44.653419024745325 1 0 1
4950 0 1 0 9.218288360781534 72.78282779033692 44.75092941710009 1 0 1
4946 0 1 0 9.262318681684238 70.31108898879118 44.67990629172766 1 0 1
4712 0 1 0 7.115938800471093 71.57349406445488 44.762478201752614 1 0 1
4949 0 1 0 7.8147899508317 72.84645889970851 44.816527327350876 1 0 1
4682 0 1 0 4.9288441967590275 55.56044015527999 43.853594597423346 1 0 1
4681 0 1 0 3.5380559724152696 55.56650152829579 43.837710813092876 1 0 1
4476 0 1 0 2.8087055302426474 73.99408681359368 45.06066210316554 1 0 1
4921 0 1 0 7.846203304418419 55.565422934931185 43.742629209552454 1 0 1
4922 0 1 0 9.260662345174813 55.54965451299796 43.72998065362315 1 0 1
4719 0 1 0 5.659627817009227 76.5101580717342 45.0763298460159 1 0 1
4717 0 1 0 3.530400205529345 77.72233878844348 45.07043991173573 1 0 1
4714 0 1 0 4.936915401654221 75.26662529032582 45.09901291114033 1 0 1
4482 0 1 0 0.6751482095423237 80.23564044769726 45.197243107426075 1 0 1
4480 0 1 0 2.7879854540512423 76.47706133716312 45.04774771307123 1 0 1
4978 0 1 0 9.168966428220234 90.13125070365837 45.10772649011445 1 0 1
4713 0 1 0 3.4996516720462125 75.24910328824315 45.0511782485374 1 0 1
4744 0 1 0 7.032805084191844 91.37094757366182 45.42543622699502 1 0 1
4479 0 1 0 1.4046138462919204 76.503374662498 45.010405257736316 1 0 1
4953 0 1 0 7.82653635566914 75.30413212340122 45.04997347134238 1 0 1
4720 0 1 0 7.110819852535895 76.51596251459246 45.19315346200825 1 0 1
4740 0 1 0 7.032693943537518 88.90447279696883 45.213816055597746 1 0 1
4954 0 1 0 9.23955335936841 75.2516124249099 45.0693859683733 1 0 1
4474 0 1 0 0.6474649503198596 75.27594299168899 44.91509752882499 1 0 1
4478 0 1 0 0.6951640980102295 77.76398107332591 44.996500143098096 1 0 1
4503 0 1 0 1.3512160417572456 91.3619776385231 45.4230998303751 1 0 1
4718 0 1 0 4.937410645449076 77.73315591040337 45.09864346300802 1 0 1
4957 0 1 0 7.822897574265588 77.75900848046507 45.22178604187721 1 0 1
4958 0 1 0 9.230986936346563 77.75301275040972 45.21910929051036 1 0 1
4484 0 1 0 2.848222000722807 78.98003898633485 45.093469718962695 1 0 1
4488 0 1 0 2.7802158109509065 81.47467022647402 45.21817688753912 1 0 1
4723 0 1 0 5.6641504560176905 78.98158167574225 45.178308460677364 1 0 1
4727 0 1 0 5.6715884835917425 81.42637371232988 45.26827489089008 1 0 1
4722 0 1 0 4.956783628963459 80.2308374555884 45.19572602323808 1 0 1
4721 0 1 0 3.5115465411043028 80.19382864955094 45.19716456683001 1 0 1
4725 0 1 0 3.500053752479998 82.69523892448156 45.274108008398485 1 0 1
4726 0 1 0 4.945869455244017 82.65669626301094 45.34288178140889 1 0 1
4483 0 1 0 1.4216796135488823 78.97693909033973 45.099843841753284 1 0 1
4487 0 1 0 1.3497990724034958 81.45119007864315 45.35427783459757 1 0 1
4961 0 1 0 7.811940125563228 80.21958038888036 45.19388186703008 1 0 1
4724 0 1 0 7.111103511116904 79.0063790597309 45.222797773420034 1 0 1
4728 0 1 0 7.0932460891058415 81.4367364439736 45.237334995794505 1 0 1
4490 0 1 0 0.6064301369709764 85.1751753022278 45.24742637895162 1 0 1
4962 0 1 0 9.223143867777146 80.22568977994901 45.238213422824586 1 0 1
4494 0 1 0 0.6464777508086674 87.69149762937575 45.2337262028809 1 0 1
4965 0 1 0 7.816236693967597 82.70333883394608 45.25302447969249 1 0 1
4966 0 1 0 9.237644307047951 82.71979187584466 45.0965387027484 1 0 1
4492 0 1 0 2.7986865768491267 83.93348950454074 45.287045465827326 1 0 1
4731 0 1 0 5.687662093775661 83.86992220193484 45.26777847017354 1 0 1
4730 0 1 0 4.918709608862745 85.08087351529129 45.23067974368352 1 0 1
4729 0 1 0 3.476546340001382 85.22958706445637 45.199651610861345 1 0 1
4496 0 1 0 2.7616627993922234 86.42088542910861 45.345123306991646 1 0 1
4735 0 1 0 5.5798026298596906 86.3972931782153 45.26087974494175 1 0 1
4734 0 1 0 4.907890559153419 87.64901241273485 45.27300134424255 1 0 1
4733 0 1 0 3.4934318988791393 87.66619229365628 45.273963013397825 1 0 1
4491 0 1 0 1.364914434605295 83.92121778636324 45.275279996372554 1 0 1
4495 0 1 0 1.3393223853744431 86.42461441884268 45.21521548731805 1 0 1
4973 0 1 0 7.706157595739436 87.66857734762685 45.08831769059964 1 0 1
4732 0 1 0 7.110213589478356 83.92067506936087 45.24376522692875 1 0 1
4969 0 1 0 7.814944164327069 85.17815857434061 45.11226337486185 1 0 1
4974 0 1 0 9.128338468208815 87.70454785591502 44.925254141599794 1 0 1
4486 0 1 0 0.6977520744020903 82.67176975285561 45.16360842743309 1 0 1
4970 0 1 0 9.189056954662494 85.20307952183366 44.95417155301475 1 0 1
4498 0 1 0 0.6807349450963083 90.1227940262863 45.411694260202026 1 0 1
4736 0 1 0 7.026450029273148 86.36712825281148 45.10974266457818 1 0 1
4500 0 1 0 2.7883184124862406 88.91563296013018 45.281236549920855 1 0 1
4739 0 1 0 5.560362476808279 88.89218977734441 45.248210970376455 1 0 1
4737 0 1 0 3.464520906337192 90.18664767262376 45.30650015860747 1 0 1
4738 0 1 0 4.889597356921989 90.17984302628533 45.396727795744965 1 0 1
4743 0 1 0 5.634192229722492 91.38977659203684 45.41691112291271 1 0 1
4504 0 1 0 2.778224836522136 91.39175851193082 45.41519501753063 1 0 1
4499 0 1 0 1.3594878994779735 88.86802656000391 45.329171528015074 1 0 1
4977 0 1 0 7.755569254820102 90.16442046809296 45.275324398491115 1 0 1
4716 0 1 0 7.057432610107422 74.08533991227534 45.00378601301144 1 0 1
4512 0 1 0 2.738439931473786 96.38686540343996 45.490086665787665 1 0 1
4507 0 1 0 1.3256026274726398 93.83404089759695 45.49594867207912 1 0 1
4511 0 1 0 1.3398658224106268 96.34070978496014 45.40207982374657 1 0 1
4754 0 1 0 4.851147374683025 100.01898905179415 45.692446069418615 1 0 1
4753 0 1 0 3.4387412623398057 100.08097737863281 45.52163357177475 1 0 1
4520 0 1 0 2.708073787738194 101.21939301377604 45.435546752764786 1 0 1
4759 0 1 0 5.585940583351007 101.27285131178219 45.715648237561034 1 0 1
4755 0 1 0 5.572306108109429 98.83279927891765 45.84518054295336 1 0 1
4749 0 1 0 3.4336183439486097 97.63336619143101 45.47256900060573 1 0 1
4516 0 1 0 2.727603464388878 98.8190512818358 45.48639511592696 1 0 1
4515 0 1 0 1.2664857003089698 98.77895729490749 45.37843194079416 1 0 1
4519 0 1 0 1.3074729125212323 101.25354840481478 45.31952555353993 1 0 1
4760 0 1 0 6.992791964270752 101.21909685502278 45.82407641580543 1 0 1
4757 0 1 0 3.4269018404667704 102.49835933313437 45.56114786064444 1 0 1
4758 0 1 0 4.822212858721837 102.48777408559165 45.6553558147018 1 0 1
4763 0 1 0 5.568037571955723 103.69833012191633 45.7357739120727 1 0 1
4767 0 1 0 5.57991323934626 106.20664900526411 45.61738109448019 1 0 1
4768 0 1 0 7.010360857098267 106.15163513111594 45.59544853796735 1 0 1
4522 0 1 0 0.6184140688850102 104.91920182211838 45.14709757712198 1 0 1
4998 0 1 0 9.130915739668094 102.39890571809525 45.87145221067376 1 0 1
5002 0 1 0 9.183015598660084 104.89190828199925 45.726967757570506 1 0 1
4997 0 1 0 7.662077818198197 102.47012942310165 45.8893035761772 1 0 1
4764 0 1 0 7.032928655392284 103.70016296455732 45.77314906903529 1 0 1
5001 0 1 0 7.744990111796288 104.94421815020303 45.68517720524347 1 0 1
4514 0 1 0 0.5881717186782399 99.99100142913193 45.23383104037623 1 0 1
4766 0 1 0 4.8520664576300865 107.42743962017624 45.41713875358578 1 0 1
4506 0 1 0 0.6284071619505871 95.0545957980465 45.47296397581762 1 0 1
5006 0 1 0 9.155351005404121 107.35015583337994 45.505850728058284 1 0 1
5005 0 1 0 7.710790050758564 107.3757269391352 45.55140127815407 1 0 1
5010 0 1 0 9.183040338282701 109.79032219536705 45.3274363183135 1 0 1
4518 0 1 0 0.6304350075476374 102.49331692570611 45.21966920380522 1 0 1
4747 0 1 0 5.59325418406726 93.86539564795972 45.54032978134918 1 0 1
4508 0 1 0 2.754047506204571 93.87143116509631 45.43777028899823 1 0 1
4746 0 1 0 4.863748170560919 95.15008338702145 45.502578098154544 1 0 1
4745 0 1 0 3.4154852977168675 95.1303686485775 45.467410580821664 1 0 1
4751 0 1 0 5.622052494626325 96.3287388870812 45.65344483314559 1 0 1
4772 0 1 0 7.0135137632986275 108.65553621077107 45.42336766685348 1 0 1
4748 0 1 0 7.037431997080142 93.8251130218764 45.59849111844347 1 0 1
4531 0 1 0 1.3997411725466224 108.64347417135669 44.91789675956824 1 0 1
4752 0 1 0 7.016879882246765 96.2637695863234 45.8201861785897 1 0 1
4986 0 1 0 9.183332523316462 95.04613863012945 45.79628748030376 1 0 1
4510 0 1 0 0.596715070947675 97.54633751724683 45.277358971872644 1 0 1
4526 0 1 0 0.6698347476423346 107.38301556804637 44.921648146550346 1 0 1
4985 0 1 0 7.753208223493699 95.04137415996195 45.73750615561536 1 0 1
4750 0 1 0 4.855207305338791 97.600051859654 45.74154549070403 1 0 1
5009 0 1 0 7.748642016933924 109.8708754982571 45.31399325149361 1 0 1
4530 0 1 0 0.6396555217379121 109.87147548509158 44.9050890284895 1 0 1
4994 0 1 0 9.157720448030563 99.99769123025808 46.20133980357966 1 0 1
4990 0 1 0 9.114755450491572 97.51079343606834 46.069122999351556 1 0 1
4989 0 1 0 7.685237499135417 97.51816792440775 45.929865488373935 1 0 1
4756 0 1 0 6.995244574086045 98.7853714299484 45.95762151126456 1 0 1
4993 0 1 0 7.758130663683824 99.9862159926216 45.97782228677339 1 0 1
4524 0 1 0 2.7533918253545053 103.7136060034764 45.519549151430134 1 0 1
4761 0 1 0 3.405784522334934 104.95770564388329 45.523585596929806 1 0 1
4762 0 1 0 4.900906599393614 104.94945321411932 45.60163497116864 1 0 1
4528 0 1 0 2.793127921284888 106.17158125222102 45.17457270535278 1 0 1
4527 0 1 0 1.3459112852271267 106.13468646732527 45.015793346385394 1 0 1
4523 0 1 0 1.3382123573777247 103.70863728268354 45.25213536418201 1 0 1
4770 0 1 0 4.919657219090768 109.93981368771283 45.22956619541836 1 0 1
4771 0 1 0 5.595531727867236 108.68768238475899 45.35927335736851 1 0 1
4765 0 1 0 3.4743315381516813 107.39674356340419 45.3042249517666 1 0 1
4532 0 1 0 2.817236542091694 108.64587564699548 45.133012749153174 1 0 1
4769 0 1 0 3.4898411276631975 109.89550625095838 45.18470945973842 1 0 1
4981 0 1 0 7.794747376534165 92.57527718659954 45.52039142469712 1 0 1
4741 0 1 0 3.4770145755817286 92.63785198125701 45.46749812947719 1 0 1
4742 0 1 0 4.887733400891344 92.65057119141926 45.489862826393825 1 0 1
4775 0 1 0 5.672026406564034 111.08690066788607 45.175335809316714 1 0 1
4982 0 1 0 9.201685032266953 92.57681688138169 45.47842485127878 1 0 1
4502 0 1 0 0.6105312492099846 92.60839399613444 45.389051389652764 1 0 1
4781 0 1 0 3.5672155781407984 117.27068157788148 44.65396466962101 1 0 1
4787 0 1 0 5.679401182902395 118.4762799011281 44.52775495209498 1 0 1
4782 0 1 0 4.9820114433986475 117.27951550683129 44.50345455860835 1 0 1
4548 0 1 0 2.793142634177708 118.50823828659871 44.766021336043835 1 0 1
4786 0 1 0 4.964158854682735 119.6964209833287 44.59550136165024 1 0 1
4785 0 1 0 3.535650439184895 119.72428027221406 44.70481524449117 1 0 1
4547 0 1 0 1.3837066829331715 118.51165770989616 44.747102182935016 1 0 1
4788 0 1 0 7.085622209843125 118.50401388918044 44.339620555731095 1 0 1
5025 0 1 0 7.832928255791136 119.67759954252021 44.39987526648209 1 0 1
4791 0 1 0 5.69217041860283 120.95259194833821 44.518136494841606 1 0 1