LAMMPS data file via write_data, version 4 Feb 2025, timestep = 80000, units = metal

11640 atoms
3 atom types

0 151.69787999999997 xlo xhi
0 145.97135308915924 ylo yhi
0 151.07316997686289 zlo zhi

Masses

1 12.01099999691024
2 1.007999999740698
3 15.99899999588435

Atoms # full

505 0 1 0 0.5904716269491537 8.734842914955477 0.7360690474150373 0 0 0
506 0 1 0 1.978331520673237 8.738133144929071 0.41403500257363607 0 0 0
763 0 1 0 7.1950627862506495 17.34277740082213 0.9888474816499945 0 0 0
512 0 1 0 4.083730332648454 10.03127062080898 0.10122970457030853 0 0 0
509 0 1 0 0.757173978850182 11.085087898527377 1.5272508921218022 0 0 0
515 0 1 0 2.8591265230372556 12.36552852680799 1.1978411716125987 0 0 0
758 0 1 0 6.461405530058987 16.12708430037003 0.98668500692918 0 0 0
510 0 1 0 2.1204810933578115 11.166696084450061 1.0730730596663594 0 0 0
511 0 1 0 2.7262847676996214 9.983410927269157 0.5548909390971215 0 0 0
516 0 1 0 4.240337829295974 12.407663705937088 0.8242055579422345 0 0 0
514 0 1 0 2.2081155004853965 13.590740292558957 1.6084001036970748 0 0 0
513 0 1 0 0.8087462564894119 13.564721181100245 1.8573639665664055 0 0 0
501 0 1 0 0.46855547711939916 6.344683948028426 0.0937636313094979 0 0 0
749 0 1 0 4.865420342502869 11.192498619941444 0.22137307772559395 0 0 0
754 0 1 0 6.36405600996572 13.667296440147972 0.5048363205633252 0 0 0
753 0 1 0 4.993432458427548 13.61041501466602 0.8962526776738183 0 0 0
524 0 1 0 4.396139564139636 17.254968329997805 1.8750279922135764 0 0 0
280 0 1 0 0.11943121759265296 14.817795642149667 2.13130498741403 0 0 0
523 0 1 0 3.0234558209280165 17.241303117958143 2.2022096938543663 0 0 0
518 0 1 0 2.3156609886383293 16.003648983983677 2.2155330454325797 0 0 0
519 0 1 0 2.9731817677245767 14.818923382619754 1.721615117106368 0 0 0
284 0 1 0 0.19114128473861533 17.200043936749257 2.638379468976657 0 0 0
517 0 1 0 0.9071499476457427 15.988098055152179 2.2425031367265404 0 0 0
520 0 1 0 4.321294104658076 14.889447091435141 1.286281748557829 0 0 0
997 0 1 0 9.175011312903589 16.120905582603065 0.22104697216010052 0 0 0
759 0 1 0 7.087310822932936 14.942678179746496 0.47435907372018554 0 0 0
757 0 1 0 5.114458311469041 16.054101184788333 1.351180238224816 0 0 0
760 0 1 0 8.48866605222013 14.920531724776968 0.17419344278631935 0 0 0
764 0 1 0 8.530961412866164 17.350207828267497 0.609148405681052 0 0 0
276 0 1 0 0.07661180494324762 12.333426781597193 1.8724450441573073 0 0 0
494 0 1 0 1.5391670898436602 1.5549001719116256 149.39262408610335 0 0 -1
493 0 1 0 0.1826441065167927 1.530768302213897 149.87550045458613 0 0 -1
495 0 1 0 2.12494029953507 0.4446004598528505 148.7466375245015 0 0 -1
499 0 1 0 2.2737151520195 2.8036565716087196 149.5004618720962 0 0 -1
498 0 1 0 1.705875412190037 3.977425006899565 150.09470820598924 0 0 -1
496 0 1 0 3.5572928093024285 0.5085279904975988 148.37608147570384 0 0 -1
500 0 1 0 3.653864302543098 2.8555432068973476 149.09795752952851 0 0 -1
497 0 1 0 0.3740331111154103 3.9688751885299403 150.4555885204835 0 0 -1
733 0 1 0 4.285295253066384 1.7175456932687332 148.51497537954887 0 0 -1
737 0 1 0 4.415151584640553 4.045973102104865 149.2290563024648 0 0 -1
735 0 1 0 6.310320463037578 0.6029701700922794 147.6242944138525 0 0 -1
734 0 1 0 5.671031249244994 1.7822615737937222 148.0819989103453 0 0 -1
739 0 1 0 6.426086180708274 2.965933956927822 148.23369713591677 0 0 -1
736 0 1 0 7.713795033708407 0.6549739937090835 147.2221871022632 0 0 -1
740 0 1 0 7.806104481870087 3.0199968237056205 147.88301138109478 0 0 -1
738 0 1 0 5.784051338733907 4.141824048840969 148.80101594349543 0 0 -1
973 0 1 0 8.44740327723561 1.8136486660139783 147.3531833406887 0 0 -1
977 0 1 0 8.505616975165587 4.249436511331384 148.01952501596742 0 0 -1
503 0 1 0 2.446965259208192 5.202912832820449 150.18022238753827 0 0 -1
504 0 1 0 3.8181532415682002 5.298663200862609 149.69305349656793 0 0 -1
508 0 1 0 4.005757527579021 7.6360273987112635 150.49582978461177 0 0 -1
741 0 1 0 4.60608442382505 6.493673851439535 149.8722797374105 0 0 -1
756 0 1 0 8.36529385359774 12.551601313665198 150.60561242611104 0 0 -1
993 0 1 0 9.121830452457857 13.771576415552428 150.80477874309236 0 0 -1
745 0 1 0 4.739662828397345 8.917334668779203 150.594535688345 0 0 -1
985 0 1 0 8.822986925773062 8.977071090946904 149.43332158819024 0 0 -1
747 0 1 0 6.666589624340366 7.761924522816027 149.5067505870946 0 0 -1
743 0 1 0 6.5787729596222215 5.353955278066302 148.93834070370298 0 0 -1
742 0 1 0 5.963342038557718 6.524088494642814 149.41501246424207 0 0 -1
744 0 1 0 7.899881005976505 5.4381370700538705 148.49295902171653 0 0 -1
748 0 1 0 8.092962899259168 7.81467409994951 149.18045346038593 0 0 -1
981 0 1 0 8.653019254718657 6.5922606779605095 148.69579686513242 0 0 -1
746 0 1 0 6.0565136179616035 8.944881350358445 150.07812359333437 0 0 -1
751 0 1 0 6.848130520271365 10.128825303459553 150.26545471864077 0 0 -1
989 0 1 0 8.93175066382862 11.33572089551095 150.10691838231327 0 0 -1
752 0 1 0 8.209188442117787 10.10059306473849 149.97201595911056 0 0 -1
502 0 1 0 1.8324799302593338 6.443009854066526 150.68161120803452 0 0 -1
755 0 1 0 6.985532983948307 12.502782962910612 151.02142796272236 0 0 -1
750 0 1 0 6.23771733159272 11.275551452952051 150.87730864928326 0 0 -1
507 0 1 0 2.6380314277043038 7.608643667249741 150.94044101879473 0 0 -1
288 0 1 0 0.19456568943615957 19.667986636437195 3.0355637241400624 0 0 0
521 0 1 0 0.8732280771353745 18.426129085707593 2.7158424440061135 0 0 0
525 0 1 0 0.8928057353493916 20.865625279743217 2.9723822637562085 0 0 0
522 0 1 0 2.2666675292627336 18.482197350764956 2.478722387835929 0 0 0
526 0 1 0 2.325735783869901 20.88594604932355 2.7281154300367954 0 0 0
292 0 1 0 0.31291846024780123 22.15734167435611 3.424282343315174 0 0 0
527 0 1 0 3.019609643118242 19.673134952797547 2.4445048432982217 0 0 0
531 0 1 0 3.1108144688437114 22.12015438192692 2.9023669013466193 0 0 0
528 0 1 0 4.406845107418915 19.732234632220198 2.1344299693480355 0 0 0
765 0 1 0 5.137449868109765 20.940697899416566 2.1722186042281577 0 0 0
761 0 1 0 5.109539948108465 18.50423512042887 1.7777304547756982 0 0 0
762 0 1 0 6.493691077574554 18.511115578464544 1.45562635087045 0 0 0
766 0 1 0 6.547703581164949 20.980803320930747 1.7611150783660308 0 0 0
767 0 1 0 7.177097268054058 19.773306281208786 1.3361264477091501 0 0 0
771 0 1 0 7.273118235315259 22.142126936873247 1.878792547177789 0 0 0
532 0 1 0 4.4773355158339765 22.121553827911313 2.656379345834951 0 0 0
768 0 1 0 8.556858001784391 19.83809915335976 0.9846500126902508 0 0 0
772 0 1 0 8.676661397693561 22.266697965157476 1.5547906082001166 0 0 0
552 0 1 0 4.822573797790644 34.26578670069219 4.645376490478121 0 0 0
529 0 1 0 1.1267697786471897 23.311561517739253 3.6648281817245447 0 0 0
530 0 1 0 2.4624114954657137 23.376630106552643 3.3354917847500567 0 0 0
534 0 1 0 2.6823560430425744 25.74305356220402 4.086661897375082 0 0 0
535 0 1 0 3.276810175500507 24.524595447815337 3.599780246441359 0 0 0
539 0 1 0 3.387709073826013 26.930796227518435 4.213251104297584 0 0 0
770 0 1 0 6.601854638381858 23.33316652946592 2.3429069886738967 0 0 0
536 0 1 0 4.679935923709034 24.482012383117038 3.312489085265355 0 0 0
769 0 1 0 5.268239553256512 23.311514430601157 2.7958572251175675 0 0 0
773 0 1 0 5.412912271131517 25.73424934031265 3.4160876348497364 0 0 0
774 0 1 0 6.769090147450398 25.776486941838026 3.028491024937986 0 0 0
775 0 1 0 7.397262654090991 24.50442263660122 2.582781073527175 0 0 0
779 0 1 0 7.5243689792916895 26.954894374858284 3.0935690018897493 0 0 0
540 0 1 0 4.770055674596508 26.90603980166137 3.8863994612453028 0 0 0
776 0 1 0 8.769941591985535 24.587566560284156 2.2589863140115076 0 0 0
780 0 1 0 8.932450243642363 26.990687993753394 2.9626980049422404 0 0 0
783 0 1 0 7.587495084378879 29.371992489989466 3.6353814127380555 0 0 0
777 0 1 0 5.478251964385682 28.14090231419096 3.905946630288292 0 0 0
781 0 1 0 5.48148444348243 30.64098763321649 4.143552604415126 0 0 0
778 0 1 0 6.848443952115556 28.133489279714425 3.4834905375326812 0 0 0
782 0 1 0 6.864487864935508 30.630765753162162 3.9436862350303454 0 0 0
784 0 1 0 8.977284179652136 29.337854678601037 3.4126058591833948 0 0 0
787 0 1 0 7.610488019276061 31.857291867976013 4.028285164075115 0 0 0
788 0 1 0 9.023470034682349 31.843510250634424 3.8742930160052738 0 0 0
786 0 1 0 6.944543175779522 33.1051393990114 4.1610170957345005 0 0 0
791 0 1 0 7.696927808651545 34.307931068368184 4.102290910979887 0 0 0
792 0 1 0 9.088291319801794 34.288396500130155 3.893423734505937 0 0 0
296 0 1 0 0.4549539375941344 24.48713057157979 4.20854602264037 0 0 0
533 0 1 0 1.2390763295911136 25.772934620471457 4.298371945381554 0 0 0
300 0 1 0 0.556660616642494 26.867723736272765 4.701461693369701 0 0 0
538 0 1 0 2.70254598929999 28.135351533245313 4.521760391343459 0 0 0
543 0 1 0 3.4010905203895363 29.364585830021646 4.545476015280237 0 0 0
537 0 1 0 1.2768406670932504 28.146802082252233 4.675834508105648 0 0 0
542 0 1 0 2.6910614825222554 30.592683462154007 4.831056993409863 0 0 0
304 0 1 0 0.5808170870529693 29.3265668038836 5.077596288256037 0 0 0
541 0 1 0 1.2715684679027546 30.619613044909503 5.033321773391182 0 0 0
308 0 1 0 0.5638485937720112 31.81147032626049 5.257138647868834 0 0 0
547 0 1 0 3.4330534803425166 31.80882819940515 4.7845689782220555 0 0 0
544 0 1 0 4.794901405038098 29.406318295489903 4.213118115230996 0 0 0
548 0 1 0 4.750373606946158 31.824205252022356 4.411341844582929 0 0 0
545 0 1 0 1.3265846175285758 33.04415380640551 5.263946725454471 0 0 0
546 0 1 0 2.7437651392161624 33.06184821513731 5.038771265332261 0 0 0
551 0 1 0 3.4519114661576746 34.2989867945987 4.999873895985169 0 0 0
549 0 1 0 1.391678054408172 35.53812333465437 5.453684320857239 0 0 0
550 0 1 0 2.7800356877053285 35.55616458484941 5.162095995184845 0 0 0
312 0 1 0 0.651634799048654 34.31697443132655 5.492174309652079 0 0 0
789 0 1 0 5.59429253129005 35.48343063891082 4.7049421373492155 0 0 0
785 0 1 0 5.519180881067999 33.060186046308914 4.358245360786955 0 0 0
790 0 1 0 6.958157065694042 35.528231677952554 4.280430418587339 0 0 0
1001 0 1 0 9.229654281721297 18.635303723547434 0.5747183305251827 0 0 0
1005 0 1 0 9.333758573653256 21.042889138974644 1.1436895383808454 0 0 0
1009 0 1 0 9.465950299151897 23.43088765725961 1.68878633265689 0 0 0
796 0 1 0 9.107520495596452 36.825872619908765 4.138996464505857 0 0 0
800 0 1 0 9.120568811801721 39.28011065289287 4.14948969877349 0 0 0
808 0 1 0 9.177833243999851 44.26831429935506 4.37444794845479 0 0 0
807 0 1 0 7.792425987838013 44.23106433419732 4.558891429743894 0 0 0
806 0 1 0 7.018841937916076 45.45334073122802 4.638366932403014 0 0 0
804 0 1 0 9.080345500441005 41.794711229062386 4.175230132536069 0 0 0
810 0 1 0 7.012099545020145 47.961216888801474 4.638077210003493 0 0 0
811 0 1 0 7.710245086721466 46.72454044508425 4.644401618216443 0 0 0
815 0 1 0 7.765211289461911 49.18427887901728 4.431193459109157 0 0 0
816 0 1 0 9.221980363288697 49.21047710017792 4.226838447337371 0 0 0
812 0 1 0 9.136019056593993 46.7493880282472 4.4532182010768535 0 0 0
583 0 1 0 3.400385954859091 54.143073874989575 4.582250231063776 0 0 0
579 0 1 0 3.4886876560741538 51.6614085222678 4.67638839476008 0 0 0
578 0 1 0 2.7325409608547955 52.907215738372315 4.788697252544243 0 0 0
580 0 1 0 4.906661750434849 51.66362526461696 4.4456765781098415 0 0 0
823 0 1 0 7.729066509514231 54.137659672213374 3.9455298226720017 0 0 0
818 0 1 0 6.986915417031732 52.881117365979414 4.201784387642084 0 0 0
819 0 1 0 7.769410489318407 51.663956193225246 4.19895633205216 0 0 0
584 0 1 0 4.849703180486662 54.16140492331677 4.496879261707711 0 0 0
817 0 1 0 5.599314651399673 52.94594452513916 4.366014431705063 0 0 0
813 0 1 0 5.587287225783088 50.415985202567114 4.455809117983722 0 0 0
814 0 1 0 7.057139920993135 50.366917430594604 4.3289309438367125 0 0 0
820 0 1 0 9.167943413946064 51.716873965836484 4.149797335391769 0 0 0
824 0 1 0 9.072318017519034 54.19123200997805 3.6892365892312515 0 0 0
316 0 1 0 0.6840885408036638 36.79583360282691 5.601300668137627 0 0 0
320 0 1 0 0.6574840780078028 39.296068774315934 5.512278658217734 0 0 0
553 0 1 0 1.4092727064796435 38.11301687477171 5.459708152336463 0 0 0
557 0 1 0 1.3684446870541045 40.49563396636273 5.343852593076115 0 0 0
554 0 1 0 2.81969077386621 38.073592094012845 5.184382354343679 0 0 0
558 0 1 0 2.8064566673859783 40.48639950353056 5.14517127159494 0 0 0
559 0 1 0 3.54233928223336 39.28888942209004 5.090959186590314 0 0 0
555 0 1 0 3.505771463858183 36.79269200346722 5.045560892911954 0 0 0
795 0 1 0 7.702895355637227 36.755763177990325 4.313047997707084 0 0 0
799 0 1 0 7.70205993112071 39.29020489265659 4.32721998110676 0 0 0
798 0 1 0 6.990280062509401 40.45612483282733 4.483851829226369 0 0 0
794 0 1 0 7.006796632342602 38.0584321919382 4.516793914803986 0 0 0
793 0 1 0 5.603052082428343 38.02559451905724 4.758164920458072 0 0 0
797 0 1 0 5.6175334192305435 40.52171419382873 4.7676663367168475 0 0 0
556 0 1 0 4.913294317218713 36.77950271970102 4.885513945866477 0 0 0
560 0 1 0 4.926810891956678 39.31465995175009 4.880711053392249 0 0 0
324 0 1 0 0.6860192807642094 41.74740593566803 5.490706637958008 0 0 0
328 0 1 0 0.6574943190460452 44.19468261022723 5.489986519800566 0 0 0
561 0 1 0 1.3673450869048616 42.97315400289212 5.44866931625621 0 0 0
562 0 1 0 2.7762338060307674 42.965205784144324 5.241778394806764 0 0 0
567 0 1 0 3.5130534995835396 44.16771224683193 5.102941494968187 0 0 0
563 0 1 0 3.4619701360605375 41.715414655298275 5.09105878498568 0 0 0
565 0 1 0 1.3624141813178654 45.43630159462311 5.3528862903947765 0 0 0
566 0 1 0 2.8046771625005116 45.393861303071716 5.223240253230602 0 0 0
803 0 1 0 7.696340557398518 41.76202445547463 4.373498899156888 0 0 0
802 0 1 0 7.032532896693428 43.023787779117946 4.5431789499755295 0 0 0
801 0 1 0 5.630635926551088 42.93682310889071 4.783212341389405 0 0 0
805 0 1 0 5.636675153589283 45.420081458015865 4.756253153111444 0 0 0
564 0 1 0 4.897958399656899 41.726079424284045 4.878585526177756 0 0 0
568 0 1 0 4.9235917071484945 44.233277449811574 4.883039373419207 0 0 0
336 0 1 0 0.6483465002996549 49.191584962904926 5.132918143522549 0 0 0
332 0 1 0 0.6860449342919243 46.68565002339906 5.412919916998553 0 0 0
569 0 1 0 1.4113657957296843 47.9249787861603 5.132243246761446 0 0 0
570 0 1 0 2.820220949025462 47.92156038806033 5.028014495467064 0 0 0
571 0 1 0 3.521965087816111 46.65456633601321 5.1048161640522896 0 0 0
575 0 1 0 3.4875153237374583 49.16777995727626 4.830495962284119 0 0 0
809 0 1 0 5.548046239219505 47.909494861733656 4.662611417839336 0 0 0
576 0 1 0 4.8959741538994805 49.180163755406234 4.695185738559056 0 0 0
572 0 1 0 4.863930844025783 46.678629621425095 4.801446539537039 0 0 0
574 0 1 0 2.7616078086061515 50.44485756970842 4.7004472197379465 0 0 0
344 0 1 0 0.6104745827491236 54.18968417630191 4.9177293771675155 0 0 0
573 0 1 0 1.375052530926646 50.43949193817609 4.914220161283467 0 0 0
340 0 1 0 0.6434209431602461 51.682938639935855 5.02445716213421 0 0 0
577 0 1 0 1.3114753070154919 52.86778298124549 4.844138051592225 0 0 0
591 0 1 0 3.4144602575568888 59.09903481627204 3.8725085631544474 0 0 0
585 0 1 0 1.3161740954229955 57.89154845605948 4.404381038959034 0 0 0
352 0 1 0 0.5778894475062283 59.13439569850147 4.504989587740255 0 0 0
586 0 1 0 2.7338164519017414 57.86236640403719 4.155031673928643 0 0 0
587 0 1 0 3.4742410319010055 56.6100977421389 4.251488916831702 0 0 0
582 0 1 0 2.7541502817716492 55.40654793135616 4.542558892169787 0 0 0
581 0 1 0 1.307218862980395 55.40373228471154 4.667476691201218 0 0 0
831 0 1 0 7.55835275251569 58.98774108228502 2.8717117825013956 0 0 0
826 0 1 0 6.896364971830927 57.817276379767286 3.264987986133324 0 0 0
822 0 1 0 6.929220335689012 55.3447327633707 3.822497454385847 0 0 0
827 0 1 0 7.603233410675997 56.574571152267325 3.3726615069303887 0 0 0
825 0 1 0 5.511880081376265 57.81811984914304 3.567929180374242 0 0 0
588 0 1 0 4.826270395700265 56.61955507041891 3.963804045202287 0 0 0
592 0 1 0 4.805504614731395 59.061523971596976 3.5359572380059965 0 0 0
821 0 1 0 5.565631326110298 55.41107797331858 4.081486379767404 0 0 0
832 0 1 0 8.947594104277112 58.94894265758273 2.497324653569045 0 0 0
828 0 1 0 9.035170519522293 56.631575634299 3.1476415186421427 0 0 0
589 0 1 0 1.2515185817283485 60.36067356403132 4.143946732379774 0 0 0
590 0 1 0 2.6348589513039435 60.33056575360571 3.8061540277126533 0 0 0
594 0 1 0 2.634209077881141 62.760467256564105 3.49084229660595 0 0 0
595 0 1 0 3.335760203765846 61.51852785469631 3.463041477056873 0 0 0
593 0 1 0 1.22901940610714 62.77997565755752 3.8672996765479493 0 0 0
356 0 1 0 0.5057863923753871 61.59373263157001 4.145004737262187 0 0 0
596 0 1 0 4.754818691369553 61.46057129574117 3.1437967150844917 0 0 0
599 0 1 0 3.300876223120716 63.97284007164311 3.1331126956774717 0 0 0
834 0 1 0 6.8510929963592915 62.68269109961599 2.496243727901346 0 0 0
833 0 1 0 5.380966638092178 62.676252367851234 2.8573524642604125 0 0 0
830 0 1 0 6.818285422461187 60.21387588373334 2.8316511701874765 0 0 0
835 0 1 0 7.475354827132644 61.40709243095328 2.4561290344604876 0 0 0
829 0 1 0 5.476754392740747 60.22061532926668 3.154323533980237 0 0 0
836 0 1 0 8.874986926422 61.36291748382643 2.0864288026593165 0 0 0
839 0 1 0 7.453376632709497 63.841912395529626 2.0631420384771877 0 0 0
840 0 1 0 8.8567856018532 63.81490202184081 1.7269424422713862 0 0 0
601 0 1 0 1.0471769405610054 67.56605379189924 2.6803436483315846 0 0 0
602 0 1 0 2.448813276376567 67.56585813487918 2.394031090874077 0 0 0
603 0 1 0 3.242718255924827 66.3614827209191 2.666103602389147 0 0 0
598 0 1 0 2.582379132531101 65.21698318616322 3.1341311780748504 0 0 0
364 0 1 0 0.4205607564861852 66.38994432748014 3.137357033663882 0 0 0
597 0 1 0 1.123035585770372 65.20196979607238 3.3203001838828943 0 0 0
360 0 1 0 0.4785515034984707 64.01216584707211 3.7621739591673626 0 0 0
604 0 1 0 4.622304780068807 66.38555165472323 2.3950991740915453 0 0 0
600 0 1 0 4.697191961452543 63.905080458288595 2.7961553740831286 0 0 0
841 0 1 0 5.266819242800324 67.52810851007943 1.831402023611528 0 0 0
838 0 1 0 6.708317367296942 65.10203297420837 2.1189936321158336 0 0 0
842 0 1 0 6.583789437836047 67.49436935663536 1.3324171210454825 0 0 0
843 0 1 0 7.3949538009940525 66.28247408824454 1.558830701823547 0 0 0
837 0 1 0 5.359297810791326 65.14752562582242 2.4602269245244175 0 0 0
844 0 1 0 8.802518259013343 66.29469506066131 1.2987015204127006 0 0 0
1081 0 1 0 9.375184614703283 67.50154163968563 0.8140043931818677 0 0 0
610 0 1 0 2.264157755550432 72.32346999690543 1.0842888094509784 0 0 0
372 0 1 0 0.2301526613087135 71.2752230442126 1.9529891236124417 0 0 0
606 0 1 0 2.3718145272385103 69.9546282280233 1.777032975086052 0 0 0
609 0 1 0 0.8366302238871332 72.42116598063028 1.4167276819083616 0 0 0
611 0 1 0 3.0159289290240068 71.16785684919927 1.2952534404263008 0 0 0
607 0 1 0 3.0796577460034382 68.76305129328148 1.955913210474605 0 0 0
605 0 1 0 0.9730843434472917 70.03662637377852 2.0927363872600178 0 0 0
368 0 1 0 0.29920805696701136 68.84995576291824 2.5051985394624 0 0 0
612 0 1 0 4.369126144320788 71.14340225002348 0.9551120722126749 0 0 0
608 0 1 0 4.48593348334076 68.75130629211033 1.7131508758680418 0 0 0
845 0 1 0 5.101008362202666 69.90322071617655 1.1329258107146198 0 0 0
846 0 1 0 6.510799965352689 69.87325418618451 0.8027324284674345 0 0 0
847 0 1 0 7.23496539674491 68.6512019892799 0.8539752791878943 0 0 0
848 0 1 0 8.63054352246818 68.67233268696631 0.6231848085882519 0 0 0
348 0 1 0 0.5829448245588744 56.63066455144228 4.622948274484497 0 0 0
1085 0 1 0 9.241846278643727 69.83235116369843 0.08634195047849766 0 0 0
849 0 1 0 5.019116101488319 72.3229386049269 0.41462237929097207 0 0 0
851 0 1 0 7.0842817360587045 71.06801735315594 0.2416912660042899 0 0 0
850 0 1 0 6.40166158009777 72.30816283653404 0.14841059453033703 0 0 0
1089 0 1 0 9.139515238778467 72.19709218774351 150.6591687863217 0 0 -1
852 0 1 0 8.486087856458749 71.01867032340945 150.97432354567357 0 0 -1
613 0 1 0 0.7309771249203147 74.71644543044933 0.7135159717847063 0 0 0
376 0 1 0 0.07792571630618375 73.59367202029924 1.2117272023468855 0 0 0
615 0 1 0 2.8951744409222044 73.54157282323129 0.5858603275464779 0 0 0
614 0 1 0 2.1128045090569283 74.73872184639956 0.3613993547714158 0 0 0
616 0 1 0 4.268891269883607 73.47554786468498 0.24213098226213534 0 0 0
1117 0 1 0 8.332059945832354 88.8608691769655 145.4877004640759 0 0 -1
618 0 1 0 2.0287827847218605 77.11783129271642 150.68371692673333 0 0 -1
883 0 1 0 6.204872807977523 89.9872093575582 145.4940423236652 0 0 -1
1121 0 1 0 8.25763316269223 91.23121159997909 144.8801663262175 0 0 -1
878 0 1 0 5.601757454451076 88.80129640935299 145.933806220401 0 0 -1
879 0 1 0 6.316404322573645 87.65648351578061 146.17407514021164 0 0 -1
858 0 1 0 6.206706188505263 77.08658391601864 149.93530142573874 0 0 -1
860 0 1 0 8.350213854516605 75.88193982954286 149.79184036567753 0 0 -1
859 0 1 0 7.002617016996017 75.9050566554373 150.14705673592653 0 0 -1
857 0 1 0 4.812376572980734 77.12624672739825 150.13939847383384 0 0 -1
1097 0 1 0 8.99762305882318 77.10051463120196 149.32873758718208 0 0 -1
856 0 1 0 8.454180203275532 73.4860676443293 150.5705131058609 0 0 -1
1093 0 1 0 9.097141429508008 74.6755369576409 150.06566836701623 0 0 -1
854 0 1 0 6.3138281264804235 74.72052343999077 150.55726508169207 0 0 -1
855 0 1 0 7.054199599726279 73.50208870138368 150.75944650714973 0 0 -1
884 0 1 0 7.598894844386592 90.05103336267535 145.31795357337984 0 0 -1
621 0 1 0 0.46446427147660646 79.46104347563403 150.34367653491785 0 0 -1
628 0 1 0 3.914066487567152 80.66590757542562 149.17255186536042 0 0 -1
627 0 1 0 2.5087607498960502 80.6872807336015 149.50656642809994 0 0 -1
624 0 1 0 4.035777049771016 78.25840751019005 149.93114808956057 0 0 -1
865 0 1 0 4.570941906005922 81.83647997519937 148.64306620179826 0 0 -1
626 0 1 0 1.7701960112405712 81.7985986518417 149.14511259693646 0 0 -1
622 0 1 0 1.8479868192322186 79.45281078294288 150.0260653178058 0 0 -1
625 0 1 0 0.3512540198778191 81.84417513738109 149.54473677324208 0 0 -1
623 0 1 0 2.603466834319321 78.23003155852089 150.14862039168796 0 0 -1
861 0 1 0 4.6787588710672665 79.46500910607371 149.3861092709262 0 0 -1
866 0 1 0 5.985324957728502 81.81104785540163 148.4121327810444 0 0 -1
867 0 1 0 6.794917426214861 80.67896330334453 148.7166791985985 0 0 -1
868 0 1 0 8.214023643587826 80.64846261770539 148.4378018255048 0 0 -1
864 0 1 0 8.282755869898025 78.31741708565747 149.22503210448673 0 0 -1
862 0 1 0 6.105200199663487 79.49724734006998 149.21276484227366 0 0 -1
863 0 1 0 6.851483527362119 78.33054025528966 149.47670220466975 0 0 -1
1101 0 1 0 8.946452746039522 79.4374775013522 148.64701214834182 0 0 -1
1105 0 1 0 8.822903187793992 81.79767116372503 147.81706195488897 0 0 -1
629 0 1 0 0.17681300859351518 84.11401852037636 148.56595959274185 0 0 -1
635 0 1 0 2.209284799129173 85.31553546125295 147.68427247841805 0 0 -1
630 0 1 0 1.555813672063069 84.13113283894657 148.2492680770926 0 0 -1
631 0 1 0 2.334805367399177 82.95546609674881 148.4996260851661 0 0 -1
636 0 1 0 3.6194542467085573 85.33638135292897 147.46620633629144 0 0 -1
632 0 1 0 3.726893695630464 82.98352588508885 148.3025835229486 0 0 -1
869 0 1 0 4.378132382471731 84.14395323411411 147.78556395654186 0 0 -1
873 0 1 0 4.314934786899878 86.52036786913156 146.93598042926186 0 0 -1
634 0 1 0 1.508055243435596 86.56285665688752 147.59120823804813 0 0 -1
877 0 1 0 4.170634091923642 88.86855259157635 146.2491339497497 0 0 -1
1113 0 1 0 8.496826109700747 86.40917714106112 146.14534302367505 0 0 -1
875 0 1 0 6.460806546049928 85.27780427029364 146.9753958435558 0 0 -1
871 0 1 0 6.612424920629429 83.03717786202297 147.88488237483767 0 0 -1
870 0 1 0 5.82253674555564 84.16452862838827 147.5348414418255 0 0 -1
876 0 1 0 7.863852311520027 85.21600465641204 146.56770405225652 0 0 -1
872 0 1 0 8.014118229936228 82.95694968650983 147.5446560733409 0 0 -1
1109 0 1 0 8.663697366181145 84.00876719045088 146.84518216515306 0 0 -1
874 0 1 0 5.6846265948963035 86.47885885080915 146.6770203554269 0 0 -1
640 0 1 0 3.5745397120597864 87.70830363360805 146.72142077993962 0 0 -1
643 0 1 0 1.9943875221674345 90.13455619321746 146.5889920420495 0 0 -1
639 0 1 0 2.1659331367428245 87.72440096050434 147.07221434104025 0 0 -1
638 0 1 0 1.3854207379276726 88.9392501738486 147.00302783964537 0 0 -1
880 0 1 0 7.73476611789425 87.61102372230191 145.95969899665553 0 0 -1
644 0 1 0 3.391340616096786 90.07526304874843 146.16070490951594 0 0 -1
633 0 1 0 0.03660046884400547 86.54523567244223 147.9391314943616 0 0 -1
619 0 1 0 2.790886204252365 75.93325865774652 150.93752366996532 0 0 -1
853 0 1 0 4.934920554774061 74.68890679082921 150.77751393334017 0 0 -1
620 0 1 0 4.202281532868668 75.95273882829149 150.63555913266782 0 0 -1
637 0 1 0 0.030040097724654255 88.89094921812388 147.28382283696044 0 0 -1
882 0 1 0 5.463851613376306 91.22662197644334 145.36125370034617 0 0 -1
617 0 1 0 0.6153608228786522 77.10616576026555 151.03600600166146 0 0 -1
652 0 1 0 3.1908380613523684 94.9119465331893 145.09612365548972 0 0 -1
885 0 1 0 3.967014395518446 93.675275331397 145.12745081194964 0 0 -1
651 0 1 0 1.8191839727017405 94.92158948819038 145.52573064233988 0 0 -1
892 0 1 0 7.395464005871321 94.91837957782833 144.3260629240091 0 0 -1
891 0 1 0 5.981737829366065 94.87560704512111 144.53834373335042 0 0 -1
1125 0 1 0 8.120615322433567 93.73203847449975 144.46723053776012 0 0 -1
888 0 1 0 7.511314542647808 92.48801055276967 144.7716286036211 0 0 -1
886 0 1 0 5.344728418946916 93.63783376049619 144.84344801971187 0 0 -1
887 0 1 0 6.1163374120977565 92.46003707221011 145.01271533361978 0 0 -1
1142 0 1 0 9.35055779840516 103.54379353018372 143.39375948809203 0 0 -1
650 0 1 0 1.0552239875270635 96.11938525924162 145.42585753847504 0 0 -1
660 0 1 0 3.028183293931018 99.73115139344547 144.36570233009007 0 0 -1
893 0 1 0 3.7635379829041273 98.54110451307866 144.34405514815626 0 0 -1
889 0 1 0 3.9127418151982085 96.09163250771303 144.74379961485667 0 0 -1
656 0 1 0 3.1286758672715056 97.31387382065788 144.6634008692391 0 0 -1
659 0 1 0 1.6627718769819877 99.81583010134987 144.65304645136925 0 0 -1
655 0 1 0 1.7419249684494356 97.29919993262912 144.9683555165166 0 0 -1
654 0 1 0 1.0201090112087277 98.565314516978 144.94563530691315 0 0 -1
896 0 1 0 7.345493946017459 97.34528600240293 144.04832590436092 0 0 -1
899 0 1 0 5.914591339483609 99.81270007164505 144.02913702282697 0 0 -1
900 0 1 0 7.305562078834397 99.81729440054217 143.87248522931947 0 0 -1
1129 0 1 0 8.079587740652135 96.12634746374039 144.12926535811974 0 0 -1
1133 0 1 0 8.021465372318861 98.58220210882004 143.83297466928678 0 0 -1
894 0 1 0 5.204660909047478 98.54928755428243 144.11589937706597 0 0 -1
895 0 1 0 5.91056183512475 97.33353565677487 144.18391353705206 0 0 -1
890 0 1 0 5.252750444335979 96.11199435644905 144.5315931584753 0 0 -1
664 0 1 0 2.9758508937699575 102.26627174311038 144.08220215250634 0 0 -1
901 0 1 0 3.6883970984296366 103.50761196949176 143.96449918811564 0 0 -1
897 0 1 0 3.668160837845891 101.02106458968468 144.14281642621322 0 0 -1
662 0 1 0 0.8710476801396534 103.50962475968225 144.2778809092736 0 0 -1
663 0 1 0 1.5584376896724113 102.27309552214994 144.27440160711322 0 0 -1
658 0 1 0 0.9091029886781865 101.03964551567648 144.52202923606538 0 0 -1
668 0 1 0 2.944069766017979 104.79553380347913 143.98368373611942 0 0 -1
667 0 1 0 1.5893185334286732 104.73131004994566 144.17050864810724 0 0 -1
904 0 1 0 7.230523812033533 102.30735239039213 143.486117380583 0 0 -1
903 0 1 0 5.812473799402265 102.30286256063543 143.74062093612258 0 0 -1
902 0 1 0 5.102486492753954 103.5272482586444 143.82571749730673 0 0 -1
1141 0 1 0 7.94500614836683 103.560740937894 143.4582258764567 0 0 -1
1137 0 1 0 7.962524526047008 101.07074225791082 143.6380590853039 0 0 -1
898 0 1 0 5.129605606069466 101.0176310969521 144.01085723158477 0 0 -1
908 0 1 0 7.1610802005862 104.76144815226485 143.522072330312 0 0 -1
907 0 1 0 5.685456911520804 104.7582233359877 143.68158665303258 0 0 -1
672 0 1 0 2.9057227936670618 107.23607553712179 143.91342668845684 0 0 -1
671 0 1 0 1.4682628109975269 107.15774902415048 144.05668577697986 0 0 -1
670 0 1 0 0.8060311081287512 108.45409852588637 144.1182036405811 0 0 -1
666 0 1 0 0.8204404921142372 105.92600160655617 144.18852771151833 0 0 -1
909 0 1 0 3.6207486696798803 108.46526039021192 143.8971825152979 0 0 -1
905 0 1 0 3.60817629930387 106.004140006035 143.88995072802535 0 0 -1
911 0 1 0 5.742457262204151 107.26432183571747 143.85588698797974 0 0 -1
906 0 1 0 5.027028695522308 106.01794926604636 143.75468120740143 0 0 -1
912 0 1 0 7.14077465653366 107.2372719006979 143.68598607232067 0 0 -1
910 0 1 0 5.056751557313217 108.47075164705323 143.85470893733307 0 0 -1
1149 0 1 0 7.890021383959616 108.4831510641515 143.68715706398433 0 0 -1
1145 0 1 0 7.825566793648002 105.98092020437068 143.5767530538557 0 0 -1
1146 0 1 0 9.333947985542649 106.01340184664856 143.54868223700726 0 0 -1
1150 0 1 0 9.291348768634828 108.50587022660373 143.6096232287776 0 0 -1
648 0 1 0 3.3070372851099403 92.46971470401391 145.61551691089005 0 0 -1
647 0 1 0 1.903333007111777 92.48471213149614 145.95750979087958 0 0 -1
646 0 1 0 1.1714069827950078 93.69170572342479 145.88520000326403 0 0 -1
642 0 1 0 1.312757606487939 91.35748184702805 146.47752810634975 0 0 -1
1138 0 1 0 9.414480804537936 101.05760024057643 143.50611904959285 0 0 -1
1134 0 1 0 9.422585578032486 98.6008242233221 143.714656526652 0 0 -1
881 0 1 0 4.066354813257391 91.25685742193575 145.70998254206566 0 0 -1
680 0 1 0 2.9562955967365467 112.18655819966601 143.82431361214705 0 0 -1
676 0 1 0 2.9353004270689707 109.71815714559914 143.9293140674255 0 0 -1
679 0 1 0 1.5310541262602186 112.16584777083324 143.90564791494884 0 0 -1
678 0 1 0 0.816501323879726 113.40475270098125 144.0346807739774 0 0 -1