LAMMPS data file via write_data, version 4 Feb 2025, timestep = 300000, units = metal

192 atoms
2 atom types

0 12.5 xlo xhi
0 12.5 ylo yhi
0 12.5 zlo zhi

Masses

1 1.007999999740698
2 15.99899999588435

Atoms # full

98 0 1 0 1.3225305930121327 2.3799033136440717 2.5276192157573454 -1 1 -3
34 0 2 0 0.7076441067594295 2.6238467117922215 1.764039537280893 -1 1 -3
39 0 2 0 0.7559747782015199 0.9493208079603744 4.034682284525829 -1 2 -3
115 0 1 0 2.8351097598952557 3.087675142449961 4.475720651317978 -1 2 -3
103 0 1 0 0.8314270354063538 0.3929828312365504 4.829440384274775 -1 2 -3
163 0 1 0 2.4826055227942176 0.9965442382744544 8.22582211353482 -1 1 -4
35 0 2 0 1.9073782626733848 1.7795722800082123 8.260648314065875 -1 1 -4
99 0 1 0 1.0743042029398733 1.299483610122114 8.028730535563941 -1 1 -4
140 0 1 0 1.1034678217400875 2.978271867714322 9.39381716747604 -2 2 -4
133 0 1 0 0.812786559458503 3.7711087412413273 0.19804166852758545 -1 1 -3
169 0 1 0 1.5467773257409336 5.456579732791464 3.0428952875288524 0 4 -4
41 0 2 0 2.5148500231060598 5.72384661249812 3.069109735868715 0 4 -4
105 0 1 0 3.1078614404990375 5.012743272796372 2.9971910828150548 0 4 -4
73 0 1 0 1.416569710846821 4.1729855537405305 5.873895437053962 -1 2 -4
9 0 2 0 2.374407009222809 3.870142577211879 6.101004840568265 -1 2 -4
100 0 1 0 2.162271822154397 6.105786560592742 7.612768143844255 -2 3 -3
137 0 1 0 2.293182708206759 3.2326641999980565 6.878523944128621 -1 2 -4
36 0 2 0 1.908588408149293 6.1246436841507075 8.541529786704245 -2 3 -3
76 0 1 0 1.0465526494002078 4.464423665206011 9.00433449019937 -2 2 -4
12 0 2 0 0.520702374505871 3.801612317831393 9.434471177959118 -2 2 -4
5 0 2 0 0.3042079692685227 4.248777887115663 11.9872489513066 -1 1 -4
69 0 1 0 0.6070372436985036 4.020494115083104 11.083112333469236 -1 1 -4
172 0 1 0 1.5023729367456353 5.734581008619203 12.382417290142849 -1 1 -5
108 0 1 0 2.326883733381924 6.6817473684876525 0.8996146598184153 -1 1 -4
13 0 2 0 0.2775641709646203 8.811034218951251 0.39774176977091585 -2 2 -5
77 0 1 0 1.10920592894729 8.344695200870587 0.19767588975100586 -2 2 -5
44 0 2 0 1.8757077033030045 6.648086128622016 0.021526207826111077 -1 1 -4
165 0 1 0 1.7307420711454842 7.39265878480449 5.955758166325041 -2 2 -5
37 0 2 0 2.720823696758756 7.16333850233892 5.7487590053909345 -2 2 -5
101 0 1 0 2.8061235168771996 6.59909578982283 4.944821918556826 -2 2 -5
164 0 1 0 2.364395057687102 6.837587484824702 9.009457191547302 -2 3 -3
62 0 2 0 2.4847351786504976 11.701296390040662 0.3474445015504173 -2 2 -5
126 0 1 0 1.4940070704322426 11.901341839579084 0.40312646771311417 -2 2 -5
141 0 1 0 0.478843952423967 9.71905761026715 0.11906526020637134 -2 2 -5
190 0 1 0 2.855016400388878 11.584146409177674 1.232609535714523 -2 2 -5
64 0 2 0 2.5010866969148458 10.456366307718525 2.9811345458479965 -1 4 -2
153 0 1 0 0.07118456408722551 12.45351997238558 2.3375395220884783 -2 1 -4
187 0 1 0 0.6622431768956261 10.09913557011763 3.7235985398336338 0 2 -3
128 0 1 0 2.870327736604466 10.84263161925085 3.8392138111336154 -1 4 -2
109 0 1 0 2.5015615331452774 11.49458792954277 5.911512655201789 -3 2 -5
50 0 2 0 0.42854492040693315 11.580748516951713 6.350272192200645 -1 1 -6
170 0 1 0 0.9852194429120944 10.52306233301986 8.318032355796863 -1 0 -5
42 0 2 0 1.2654802434938346 10.839643124774879 9.159820011973467 -1 0 -5
183 0 1 0 0.2927001730631735 11.983658225856008 10.392899417551549 -2 1 -5
106 0 1 0 1.5881171005626642 10.024889205494372 9.53189718209626 -1 0 -5
83 0 1 0 5.330163881905994 0.23549110793267125 2.423923878111016 -2 2 -5
179 0 1 0 3.4746537374511535 2.0360725014702137 3.581620111568181 -1 2 -3
3 0 2 0 5.249342336831594 0.9114025171766263 4.171934141919043 -3 2 -6
51 0 2 0 3.1278474320617167 2.9408434888402786 3.5005396086910054 -1 2 -3
67 0 1 0 6.088012848168764 0.9089971862051874 4.678263346446614 -3 2 -6
131 0 1 0 4.604916377498294 0.3405833740446392 4.701233200602622 -3 2 -6
132 0 1 0 3.8999885280405686 0.1383293129546567 9.08244760064367 -2 3 -5
79 0 1 0 3.9993556902544425 2.1122707168071977 10.248689950874876 -1 2 -6
15 0 2 0 3.7692044132242466 1.2631103243020252 10.619295487641814 -1 2 -6
177 0 1 0 5.669542058587503 0.194947824461431 11.220900243664007 -1 3 -4
143 0 1 0 3.4698630940689315 1.2706074276072126 11.571879532833565 -1 2 -6
176 0 1 0 6.112263876326136 3.079180056560444 11.993569662874027 -1 1 -4
71 0 1 0 5.109555397172982 3.524322154396176 4.006033693702638 -2 2 -3
135 0 1 0 5.540886029140845 5.093808714436652 4.128269864550644 -2 2 -3
7 0 2 0 5.787545373075059 4.1350705532503556 4.376354626225695 -2 2 -3
156 0 1 0 4.167050306253163 4.95899549776966 6.805246853910199 -1 3 -3
28 0 2 0 5.0763366165243635 4.871152927721754 7.05593134751154 -1 3 -3
92 0 1 0 5.524869543506205 4.429569001707011 6.290771077729863 -1 3 -3
160 0 1 0 4.860375540513675 3.8497838007832708 8.500607647904658 -4 2 -3
96 0 1 0 4.503696823289455 4.225972261578866 9.967950616808583 -4 2 -3
32 0 2 0 4.804286607840276 3.4459093481857614 9.410838622164212 -4 2 -3
10 0 2 0 4.476255570188161 5.778152911804732 11.06509617912046 -2 2 -6
180 0 1 0 4.600229332674294 8.655689880211249 0.9749033783146942 1 3 -2
116 0 1 0 5.028079761122673 7.400526881153562 1.9311032139797266 1 3 -2
52 0 2 0 4.497148075876998 8.19894116702713 1.8715930312299844 1 3 -2
151 0 1 0 5.696201139605754 9.167228019439076 3.05534522205198 -1 2 -3
46 0 2 0 4.462376532451999 9.18015470196536 6.822516464923014 -1 2 -4
110 0 1 0 5.35977871251516 8.820224010553686 6.761871303383833 -1 2 -4
174 0 1 0 3.9894845569635797 8.443926398360986 6.405088244219378 -1 2 -4
127 0 1 0 6.212302827898945 6.344446899408783 7.461006114644886 -2 3 -5
155 0 1 0 3.8085174174884933 8.528115943494086 8.846594452168407 -1 2 -4
74 0 1 0 5.168818165482298 6.274953322086172 10.617402067019865 -2 2 -6
91 0 1 0 3.5332295589359624 9.018025788476493 10.388936264300094 -1 2 -4
27 0 2 0 3.2021429088224522 8.509948053863402 9.584293904800003 -1 2 -4
138 0 1 0 3.778658962140994 6.488359867793617 11.139462910428271 -2 2 -6
113 0 1 0 6.14081327519936 12.291973256944647 0.08522429768920896 -1 2 -3
19 0 2 0 5.575964068065826 12.081744098600652 1.7710518992610538 -2 1 -5
147 0 1 0 6.0257570080861 11.476989754535767 2.346384599004159 -2 1 -5
192 0 1 0 3.173508659872143 9.721794621155402 2.8952906272634964 -1 4 -2
45 0 2 0 3.2294145110347485 11.368607482349063 5.351426856007278 -3 2 -5
173 0 1 0 3.7935401465818446 10.726783315417066 5.836831391942895 -3 2 -5
68 0 1 0 3.590144156263797 11.389373450329195 8.29496459105048 -2 2 -5
171 0 1 0 5.789277196136919 11.451801673762489 8.129516186133099 -2 2 -5
4 0 2 0 4.09664099085781 12.200584741653417 8.22717593866576 -2 2 -5
21 0 2 0 4.346307702998391 9.815501165941928 11.692262210893732 -2 1 -6
85 0 1 0 3.6753007962534245 10.463320148454958 11.831433728704424 -2 1 -6
149 0 1 0 5.121055212906942 10.425780198790497 11.655102723246165 -2 1 -6
112 0 1 0 7.0985782151481915 2.8207534709103608 0.6654171569169455 -1 1 -3
84 0 1 0 8.301374114883195 2.545446812873463 2.5788070587307477 -3 2 -5
148 0 1 0 8.371230611539076 1.0785708939268495 2.109347609611049 -3 2 -5
20 0 2 0 8.292228690828448 1.9896683475008317 1.7418867816843608 -3 2 -5
157 0 1 0 8.213664298532137 2.4653598271586636 4.68343262220695 -1 3 -4
53 0 2 0 8.006962740778947 1.2278764089364562 5.787183246230657 -1 3 -4
117 0 1 0 7.968172934065823 0.24066491659204792 6.067818284014257 -1 3 -4
181 0 1 0 7.9065124626624055 1.6599734283630434 6.66836119153959 -1 3 -4
22 0 2 0 8.080830936101057 2.555313624183343 8.26452966671611 -1 2 -5
150 0 1 0 8.263081947186087 1.9318402153186052 9.035103055791954 -1 2 -5
86 0 1 0 7.279303133458128 3.093360019967552 8.365843184297523 -1 2 -5
61 0 2 0 8.479379448640895 0.6620151065954922 10.343140934801848 -1 3 -5
125 0 1 0 7.723719561516728 0.22371877386892858 10.802189989135751 -1 3 -5
189 0 1 0 8.950659616775086 1.233212201906456 10.996603604559517 -1 3 -5
48 0 2 0 6.520912227835986 3.4459398394578473 0.23144384673629784 -1 1 -3
124 0 1 0 6.321293786162853 4.975347181223845 1.3522114663707232 0 3 -4
188 0 1 0 6.973542204435008 5.83765739403129 2.647544338523062 0 3 -4
60 0 2 0 6.300569276491535 5.817717520376591 1.9504908090077575 0 3 -4
93 0 1 0 7.673838014009393 3.9551621667832637 4.248225913369216 -1 3 -4
29 0 2 0 8.423369724694759 3.3319874344355145 4.167716818477422 -1 3 -4
118 0 1 0 7.944520685195997 4.628088342293654 11.571557670690215 -1 2 -4
182 0 1 0 9.184995442057742 5.594237975446787 11.553273881944312 -1 2 -4
54 0 2 0 8.370550498553852 5.329695646691638 11.079974809923812 -1 2 -4
16 0 2 0 7.598327384135511 8.133389229669456 0.7950472003964233 -2 2 -4
80 0 1 0 7.101241201307247 7.305262252445186 0.683757379398659 -2 2 -4
144 0 1 0 7.20160453986157 8.762176453281757 0.18470845390326218 -2 2 -4
87 0 1 0 7.1877321059811505 9.295342320176253 2.53686674611942 -1 2 -3
17 0 2 0 7.299260208585657 6.664806565145774 4.421398375763213 -1 1 -6
145 0 1 0 7.146806756221859 7.594505459378745 4.453747051543504 -1 1 -6
81 0 1 0 7.941253725048674 6.388559961760284 5.081203489879114 -1 1 -6
63 0 2 0 6.716600543157863 7.197825439849619 7.409274578615437 -2 3 -5
94 0 1 0 8.872644289382892 6.304099870278302 7.242217436455456 -2 2 -4
191 0 1 0 6.780884493676943 7.33491092817662 8.431558399797643 -2 3 -5
139 0 1 0 7.1416831648093195 7.988689297733735 10.341372134898585 -1 1 -5
11 0 2 0 6.86166483778026 7.18887093921549 9.971819941233129 -1 1 -5
161 0 1 0 8.627743502497593 9.314481370993635 10.363432671608066 -2 2 -3
75 0 1 0 7.472559712385715 6.468256489040959 10.232999698316483 -1 1 -5
56 0 2 0 9.234698856343117 11.787469832954907 2.616125342255631 0 2 -5
120 0 1 0 9.254395263213743 11.426269524338048 3.497891975686796 0 2 -5
23 0 2 0 6.54941471620051 9.593547402867294 3.2627621718334323 -1 2 -3
121 0 1 0 9.031868262610194 9.863179013210127 5.594792360342504 -2 2 -5
57 0 2 0 8.417762499913128 10.690297784968916 5.713648020790615 -2 2 -5
185 0 1 0 7.619015093956661 10.472509420597596 5.201826823815468 -2 2 -5
107 0 1 0 7.221312979996968 10.872628278928007 7.72049175879754 -2 2 -5
43 0 2 0 6.648471852722418 11.195461075980457 8.48460029781419 -2 2 -5
97 0 1 0 7.320606408735435 10.130495664232528 9.889099048498625 -2 2 -3
33 0 2 0 7.779403860605209 9.700777638335067 10.68641622668071 -2 2 -3
49 0 2 0 6.3025614069786515 12.155948105383388 11.628766238126865 -1 2 -4
88 0 1 0 10.146190542433013 2.278369961273483 0.45749895560921966 -1 1 -2
89 0 1 0 11.887593610222314 0.1314583637773139 0.951150406405565 -3 2 -4
162 0 1 0 12.373192032695682 2.820690936679222 2.2617156296058165 -2 1 -3
167 0 1 0 12.466043148055952 1.5008667464404 4.144567437367444 -2 2 -3
95 0 1 0 10.202102147590127 3.1166222074288195 3.888633365392673 -2 3 -3
66 0 1 0 11.227450349435165 1.3055348961188928 8.277235180593717 -2 2 -4
2 0 2 0 11.739962520896466 0.532709901566388 8.288547693513488 -2 2 -4
24 0 2 0 10.649467777724727 2.07594640542837 12.172731474971 -1 1 -3
152 0 1 0 11.376594823580843 2.7192632683188718 12.109171522925875 -1 1 -3
119 0 1 0 11.735988058340263 0.3673026201230341 11.030162068423017 -3 2 -5
1 0 2 0 12.317017904926237 5.841647368440225 2.367584426786683 -3 2 -3
65 0 1 0 11.777210840977384 5.05276929804292 2.2258420794828147 -3 2 -3
31 0 2 0 11.192955427552434 3.2438202904729687 3.678520027963851 -2 3 -3
159 0 1 0 11.397857811938646 4.0481051611123915 4.188273784147971 -2 3 -3
38 0 2 0 12.373686146150629 4.761549040841849 5.718994226577358 -2 4 -3
166 0 1 0 12.200630776016254 5.739643782315946 5.598153889975589 -2 4 -3
102 0 1 0 11.79275356641488 4.39859595252456 6.356167549750122 -2 4 -3
30 0 2 0 9.433235144763906 6.021131074754621 6.508322017190273 -2 2 -4
158 0 1 0 10.23307984651794 5.632860089214483 6.912218326641116 -2 2 -4
82 0 1 0 11.213689013981094 3.6980433107031407 8.651434138841266 -2 1 -6
18 0 2 0 10.735204715058346 3.2240634798113716 7.957207006726309 -2 1 -6
146 0 1 0 9.815843121097107 3.1400208377102627 8.274418721462174 -2 1 -6
175 0 1 0 11.609342283052701 5.685564794061478 12.273654557208411 -2 2 -5
47 0 2 0 10.729626623187428 6.145214047392715 12.305649930902426 -2 2 -5
111 0 1 0 10.675428396175352 6.600794851613022 0.7243997713930658 -2 2 -4
134 0 1 0 9.612518209262674 8.103705979714 1.3628252845682642 -3 0 -5
129 0 1 0 11.6466367944588 6.47032598802967 2.7710432934350355 -3 2 -3
6 0 2 0 10.419934803130367 7.977639715301163 1.9667911497292767 -3 0 -5
70 0 1 0 11.235195546758455 8.323574450337052 1.5895620168880469 -3 0 -5
90 0 1 0 10.073142011988512 8.11782696002688 4.325513011731629 -3 2 -4
154 0 1 0 9.616656385232663 7.559379618451159 5.708576759318743 -3 2 -4
168 0 1 0 11.942558327464388 8.235841209925768 5.137108820312651 -3 3 -5
26 0 2 0 9.779127900847419 8.39326796749034 5.225676798701852 -3 2 -4
40 0 2 0 12.461498201405568 7.712790443257918 5.870802407299083 -3 3 -5
104 0 1 0 11.877586223052267 7.757217271227219 6.665355478264171 -3 3 -5
58 0 2 0 11.472753329407166 6.973104867421462 8.417518671937282 -2 0 -4
186 0 1 0 11.287247055010342 7.541129415503263 9.21139009465611 -2 0 -4
122 0 1 0 12.357646632240167 6.673230980985172 8.666563110160656 -2 0 -4
136 0 1 0 10.36308562574164 7.6936777140595645 11.254889157146147 -2 2 -4
72 0 1 0 11.43694228643335 8.726083300330107 11.449327368504976 -2 2 -4
8 0 2 0 10.51526023423467 8.633000782059037 10.971952777372454 -2 2 -4
184 0 1 0 10.147636173137426 12.015004210498697 2.447918269893087 0 2 -5
25 0 2 0 11.962415673909847 12.089790802756266 1.748254639354347 -3 1 -4
123 0 1 0 11.627635872899738 10.368231611580354 3.408196316560534 -1 2 -3
59 0 2 0 12.25496598614428 9.985406378152126 4.053734802573937 -1 2 -3
114 0 1 0 12.40579366635659 10.885241480921591 5.790240536919354 -2 1 -6
178 0 1 0 12.281355568341963 12.227722535441162 6.820542221129576 -2 1 -6
14 0 2 0 10.169179900733704 11.092655185165935 9.126483995877438 -2 1 -5
130 0 1 0 11.155293172231248 12.342359878270553 8.753623576546644 -2 1 -4
78 0 1 0 10.435252809050422 10.347339662576097 9.714896619453052 -2 1 -5
142 0 1 0 9.448101058749945 11.568963287076278 9.660226283065043 -2 1 -5
55 0 2 0 12.424975124330098 12.229485609180148 11.278671602007634 -3 1 -5

Velocities

98 17.45066822704157 1.3014692169933217 20.5063262742895
34 7.546734648095908 6.9748877209299645 -2.7483789581304223
39 -1.8305687167785336 -2.095741237892611 1.8046992803964723
115 13.401752828243044 -8.67453908932828 26.149837240126292
103 -2.37747237200478 11.891801182348082 3.4238173982019697
163 -6.8372301725991695 5.488773363723588 0.4074788806415998
35 -1.854373620781765 2.203252518268095 0.42018661583514855
99 20.462529379257127 3.8256802967490584 23.733532566408485
140 -7.9507386313514665 3.611054342061094 27.04322497620654
133 -31.249492157287868 -6.313985715287878 -24.68495057858477
169 -14.003831857353575 19.89656694077131 18.7683983629194
41 6.159639575434297 -9.126577228947971 -3.2610755404979215
105 9.45222464931458 -26.314835645384647 -27.61583428844834
73 12.506718384795061 21.546528785531205 -3.8042410644280125
9 2.022289020083838 2.6178819996799567 1.6949401198509904
100 -24.39410977352396 7.537933067176369 -17.904058596627635
137 -14.267501240119095 -17.553377026338797 -7.035656180223731
36 -0.7741406985285788 7.599274266841016 -4.3004428521301055
76 22.91351129092571 4.000457498544412 9.70103971273191
12 -0.012845943165364616 3.2023623905039553 1.9047714408745742
5 5.387214161892324 -8.47299022590007 -0.0592217759157878
69 -1.933444567022121 -11.045350881957724 -12.072590551984774
172 9.095386675766978 -3.3905427806843265 1.7384199592033969
108 5.290660086111416 33.17327772314389 -0.21477455874274406
13 -3.040319077983955 1.9716128294048476 -0.5079575906752228
77 7.2970426401795105 7.049585855376785 8.104343448086631
44 2.5120918806427004 -4.543695765080645 1.9181629808210383
165 27.588149791106503 9.358675315888691 2.0923028517140243
37 -4.825422708386704 4.077781563481388 0.9370572617564296
101 1.8873026597497446 3.370488306167789 -10.422665939821039
164 -21.46560006669254 2.619932056272753 13.792201231638462
62 2.290172566640118 -0.4409145092746101 -7.216549514434123
126 -15.625749240994132 40.56145106259733 -4.002573687578124
141 5.764052039281796 11.11870266561193 6.749197968750245
190 -10.738286997482042 19.928652477124494 3.1366487255934934
64 -3.953880270161873 2.123481594844666 -5.693118015573572
153 5.335383736597541 -5.018941462237447 -11.15522074001758
187 -16.77963976245999 -38.450194526344006 14.131905555676786
128 -11.693397380993073 -2.9048522510440544 -0.7677731308288421
109 -11.522018401276517 -11.394770618038002 -5.818369631034043
50 -1.1423283266718156 1.2760275191394523 -8.918634433246433
170 4.275864062488302 21.148046710354873 3.5834983432617458
42 0.48969917743601377 -0.06970437646384973 -12.607677750391018
183 -5.0848899815505115 7.171963599167708 -22.121632753312763
106 -22.99621384454397 19.013377735558308 27.756761919799782
83 -21.95665482362001 12.58617702676824 -36.117439191421795
179 -19.87715243285574 7.873070900972419 -2.188480015278729
3 -1.6237723604437584 5.194487139641502 -1.4603131612703988
51 -0.08586287575751757 -0.14577287465261257 -6.114948169289075
67 3.3928154978710396 -19.399093714300616 -14.645074529216183
131 15.88659159238887 -15.258901119413334 -22.605412061457116
132 -1.9511434501374014 -2.319694564253666 -0.9627329777563365
79 3.8427476596153483 14.253027918349261 9.857136264489393
15 1.016012583260668 -5.376287129534195 0.7526549632412523
177 16.06837437507665 28.838448445510227 -10.322325804992788
143 -23.592813188250492 8.026113409853055 12.016951543799399
176 12.683400354364283 9.046171127932253 3.6947371296333196
71 -31.38723883347406 0.6221617718235163 -20.355208374667686
135 16.056871485019663 23.497201347741154 -0.8492834420535015
7 -4.381010046755347 -3.149301900612801 -2.561694553188407
156 19.236417971077618 -14.191273121492896 -19.989610342086447
28 -1.5627980830876547 -0.7257222913221525 0.7743293572943196
92 -23.32472643725357 9.455928186027247 -3.672151903233867
160 -13.958314687860748 -16.411103915634985 11.117219868344284
96 17.501288145226273 1.9183422315752285 -40.59447455993838
32 -7.132636447551103 6.172557838856483 -5.674038099068306
10 3.2805059095733973 -1.2552680033967205 3.8870710126286436
180 18.781063084805304 -16.719430052223625 -26.16636162680869
116 13.871644059648522 -10.094525197625687 2.03875980714261
52 8.041170125584937 6.443862993127837 -0.5604384099362862
151 8.972445943213566 -1.425670403539661 -2.0357029239184397
46 -5.662430157474048 -4.745309008887728 3.6538351655045394
110 -13.498810507074458 -2.9650677829150975 17.24938031974264
174 13.85666182012524 0.44622693399585844 4.574923715546852
127 -2.159441901064288 -8.19170012091125 -2.8489610844987587
155 0.49588003204958914 -15.392520218656875 -21.41287409381035
74 -12.379740614197877 21.57952944816662 9.089039322887073
91 2.1424358021031304 -23.12917286144143 -5.817144799402951
27 -6.662585814623821 -4.186955454044334 -2.2003431546662506
138 28.095297612117648 3.7165005364909214 2.4784782962727934
113 3.909568730004315 14.83891119305172 -9.351920949905848
19 -3.1992999206246546 1.3481125564413996 3.751347981005363
147 15.524030901194218 10.932338265132424 -5.534043226139281
192 15.805149746731084 8.451312631647271 12.5052761430136
45 1.2108229354954134 0.7825563425227052 -1.719584973113837
173 0.4853726404696323 0.7716778416937964 -5.329670745751888
68 -6.027275724353143 1.6138801496102473 11.542188214688991
171 -4.443457273909155 4.022366156388548 -4.945148177870189
4 -1.718841354310423 -6.454367987770063 6.6793534797445355
21 4.581907259543642 6.255646832726699 4.251876338279563
85 4.791798083523006 -9.324682978864368 -7.301334007171016
149 -0.09140772456633996 -23.018204839176786 18.67451582784381
112 -8.680706847899351 12.880609830272844 10.084322825032606
84 -1.2279530227468767 0.3866122366020663 15.900712188612099
148 11.365731251434223 0.5490406932426283 36.08192920680762
20 -6.509498175751279 4.0129293191473625 0.7893579160346965
157 26.81122603711589 10.91515717967553 5.392004422587424
53 5.165409564133684 0.08561954219381387 -1.5454542784826417
117 22.88271910570487 -24.42647761619874 3.4409039017547443
181 0.7336311431063618 -13.480862344223109 5.898640637498771
22 -6.508338834213306 1.2140863553101988 1.0008155381030197
150 8.641792487582116 -17.26018743419455 -3.274244417016086
86 -10.283638789056809 8.559261246896755 4.3342965213751175
61 -3.585000039332204 -3.707303924485891 -6.7650939507602
125 40.27347428591328 1.481225162407671 15.920672155807148
189 5.258561569227151 1.6106694415846874 5.416732570084644
48 -1.8091900729080503 -1.9600301107821982 1.0872659335302242
124 10.869848838185797 -23.658999879227796 -15.865528073286626
188 30.263866996779356 9.210956689866231 -4.8932558480042445
60 -0.32429209850904717 0.5723655778720891 4.862050073481229
93 2.4930885874422173 -3.8764879250324964 12.207030062107245
29 0.20570064699733603 0.9343395561197672 2.539949725280589
118 4.982083043365768 11.463934621198716 -14.587791157928569
182 9.948390163594887 -16.37315977419496 49.85959378640973
54 -1.2265543813310034 4.913747617066015 3.3519373279057327
16 -0.5015483567130645 -4.948637367170038 7.606266956904003
80 -18.007041102056753 6.442848434935785 -15.103604020332243
144 5.957119551326072 3.082557722673338 8.704258823684663
87 5.848189278177928 -20.816954105838033 -17.62567651679377
17 -2.9600382476770792 -1.129111581565893 1.6966305815829792
145 -15.98519619354654 -9.655942062343918 7.00001363688981
81 11.951403256313622 -3.9608083082922665 5.0760444652616865
63 -6.306563547744813 -2.1268116153927594 2.890373441683053
94 14.079812414540497 -13.666937636470237 -2.244668403669611
191 10.697230717261299 -35.44645436091727 11.068249908912469
139 32.41694501003257 9.774614798915625 -2.0942212587274995
11 5.514662713524602 8.788725319739875 1.7448401329936714
161 35.05717902832079 -4.3006037669736425 13.271423004397262
75 24.753263991158946 22.58462800639837 -10.155244671968482
56 1.3712841208210627 7.976098973031763 3.473695736973457
120 12.683819874707575 15.86504959163634 0.23780356034256286
23 -1.8341702127140327 -8.86672904410586 1.1454412642156502
121 -3.3246483323840788 8.22182627510977 7.4430346164677434
57 4.416783413033002 -1.634370584753265 0.44369707162236177
185 -19.085909509951115 11.33902556330305 14.90817064791172
107 -9.721503983070358 -18.71274973543411 -4.027001094201728
43 -3.7573282366804763 -8.407392522626017 -0.606892364963756
97 -11.812565630361867 -19.15696473250951 10.018798755582285
33 2.5520034531006304 1.4616596784905498 1.440653249036247
49 0.3423815522410377 2.4597122678019407 4.700301625752647
88 14.71110509812728 -0.7362580408034657 10.7132813035568
89 7.067512508246053 23.500265622385257 -10.173790499551956
162 -1.052057145814756 -10.109026865298711 -19.91512039814939
167 20.071813654768334 12.327353533210335 7.5995375894256805
95 -1.7090461213982278 28.116883035457718 1.4569997875868888
66 12.598772093697526 -33.98979374614369 -13.354545287072943
2 -4.604270546667834 -10.560664250468058 5.437279566954512
24 4.812382899020547 0.9363840844904553 0.7505743766253663
152 -17.88525051744584 20.7344880012281 -12.953432686563483
119 -35.00477410998283 21.584358147340158 -1.1042763198487182
1 -0.1776308571205105 2.3351518761250394 -1.9955602284539302
65 -18.21905262293069 -5.605436138052927 25.84572585156573
31 -3.096009495676311 -0.32429859944084777 -4.184769107947692
159 8.709590353040856 7.269686410423628 -27.714527277952634
38 3.6872600676156417 -2.418574216887325 1.2286355140593785
166 29.471564909702675 -8.47470765353205 -0.9366683205507187
102 0.44864930769814976 -12.888406603080364 -1.7648820414954853
30 -4.510886512324129 -3.677387622502693 1.081503998298755
158 -14.579850181259758 -19.36945804181683 4.017088457162762
82 -0.28381518221531893 -13.913761742664798 3.535092096493247
18 2.650286918745281 1.1005450005674693 -5.6462360755785355
146 11.205710782509748 7.627906101955207 -26.572088531413343
175 -14.219598178218282 34.37980225497672 -5.704978083906244
47 -2.1522369691484657 1.7137319954565002 3.131768085788271
111 10.356439174263759 -10.59330596904824 2.1172975556771236
134 14.096930894772287 -4.177591505942943 -27.019604788322823
129 -10.391013859565415 2.528430076109208 -2.0198389504853296
6 1.719069937911563 -2.0458786592361733 0.9627865909237919
70 -7.199666986060216 -8.571984900265809 2.5045981971257287
90 -7.167720461400487 -20.152288775475693 13.945691366347866
154 -19.307213944840885 1.937323645993371 -2.9015235858096764
168 3.4299215369455274 -6.1852794046455655 -9.81042010664379
26 5.220096553815953 2.0409155898659788 -6.398553963881069
40 2.522599617108671 8.358130800434127 -1.064557953535232
104 8.2692746050584 15.700628251450413 6.008096098670168
58 -5.57340620017311 -6.283900630084775 3.660662368569373
186 20.970154385744074 -5.369166729676388 4.9131523452238985
122 -26.56249160978856 -21.904153087765096 -0.9036850016730756
136 1.2876468984376044 14.252162463121339 7.26233848243492
72 14.161345930333564 -7.614683593431899 -2.3160585352360643
8 0.6368710131283877 3.052181782304187 -1.254504856632709
184 3.7840547027461278 -11.145372004558416 -3.074052511075609
25 2.9819659189602463 -1.0832695855534045 -4.566374915109092
123 -8.97595689127502 -9.598635465733043 -1.6384456640269054
59 -3.9006784792690428 -2.6404227953383357 -4.347268915701672
114 -18.70268018638136 24.541577187475067 0.6321565775903051
178 1.7370931128393536 15.46053051542438 10.604178720915623
14 -8.161356665978628 1.20441088875591 0.00899044392497231
130 -11.54847913325794 21.534558987173927 -7.386561436969279
78 18.167971945666224 34.34138239447619 -12.168294599848378
142 28.09631239924132 5.450462915296265 -24.298580336001812
55 8.35132171565757 0.44775141513826067 6.206334505046893
