(written by ASE)

192 atoms
2 atom types

0.0                    12.5  xlo xhi
0.0                    12.5  ylo yhi
0.0                    12.5  zlo zhi

Masses

     1      1.0079999997406976 # H
     2      15.998999995884349 # O

Atoms # full

     1   0   2   0.0                       0                       0                       0
     2   0   2   0.0                       0                       0                   3.125
     3   0   2   0.0                       0                       0                    6.25
     4   0   2   0.0                       0                       0                   9.375
     5   0   2   0.0                       0                   3.125                       0
     6   0   2   0.0                       0                   3.125                   3.125
     7   0   2   0.0                       0                   3.125                    6.25
     8   0   2   0.0                       0                   3.125                   9.375
     9   0   2   0.0                       0                    6.25                       0
    10   0   2   0.0                       0                    6.25                   3.125
    11   0   2   0.0                       0                    6.25                    6.25
    12   0   2   0.0                       0                    6.25                   9.375
    13   0   2   0.0                       0                   9.375                       0
    14   0   2   0.0                       0                   9.375                   3.125
    15   0   2   0.0                       0                   9.375                    6.25
    16   0   2   0.0                       0                   9.375                   9.375
    17   0   2   0.0                   3.125                       0                       0
    18   0   2   0.0                   3.125                       0                   3.125
    19   0   2   0.0                   3.125                       0                    6.25
    20   0   2   0.0                   3.125                       0                   9.375
    21   0   2   0.0                   3.125                   3.125                       0
    22   0   2   0.0                   3.125                   3.125                   3.125
    23   0   2   0.0                   3.125                   3.125                    6.25
    24   0   2   0.0                   3.125                   3.125                   9.375
    25   0   2   0.0                   3.125                    6.25                       0
    26   0   2   0.0                   3.125                    6.25                   3.125
    27   0   2   0.0                   3.125                    6.25                    6.25
    28   0   2   0.0                   3.125                    6.25                   9.375
    29   0   2   0.0                   3.125                   9.375                       0
    30   0   2   0.0                   3.125                   9.375                   3.125
    31   0   2   0.0                   3.125                   9.375                    6.25
    32   0   2   0.0                   3.125                   9.375                   9.375
    33   0   2   0.0                    6.25                       0                       0
    34   0   2   0.0                    6.25                       0                   3.125
    35   0   2   0.0                    6.25                       0                    6.25
    36   0   2   0.0                    6.25                       0                   9.375
    37   0   2   0.0                    6.25                   3.125                       0
    38   0   2   0.0                    6.25                   3.125                   3.125
    39   0   2   0.0                    6.25                   3.125                    6.25
    40   0   2   0.0                    6.25                   3.125                   9.375
    41   0   2   0.0                    6.25                    6.25                       0
    42   0   2   0.0                    6.25                    6.25                   3.125
    43   0   2   0.0                    6.25                    6.25                    6.25
    44   0   2   0.0                    6.25                    6.25                   9.375
    45   0   2   0.0                    6.25                   9.375                       0
    46   0   2   0.0                    6.25                   9.375                   3.125
    47   0   2   0.0                    6.25                   9.375                    6.25
    48   0   2   0.0                    6.25                   9.375                   9.375
    49   0   2   0.0                   9.375                       0                       0
    50   0   2   0.0                   9.375                       0                   3.125
    51   0   2   0.0                   9.375                       0                    6.25
    52   0   2   0.0                   9.375                       0                   9.375
    53   0   2   0.0                   9.375                   3.125                       0
    54   0   2   0.0                   9.375                   3.125                   3.125
    55   0   2   0.0                   9.375                   3.125                    6.25
    56   0   2   0.0                   9.375                   3.125                   9.375
    57   0   2   0.0                   9.375                    6.25                       0
    58   0   2   0.0                   9.375                    6.25                   3.125
    59   0   2   0.0                   9.375                    6.25                    6.25
    60   0   2   0.0                   9.375                    6.25                   9.375
    61   0   2   0.0                   9.375                   9.375                       0
    62   0   2   0.0                   9.375                   9.375                   3.125
    63   0   2   0.0                   9.375                   9.375                    6.25
    64   0   2   0.0                   9.375                   9.375                   9.375
    65   0   1   0.0    -0.56865754988870709     0.35440649006895669     0.74231033318388817
    66   0   1   0.0     0.49926005045855315     0.86490738819802793      3.1767166497038306
    67   0   1   0.0     0.22029992103645923    -0.23056807885587116       5.302209777533001
    68   0   1   0.0    -0.96355868384513055    -0.26641186638460568      9.3990703185710291
    69   0   1   0.0    -0.35940034144561539      3.3683823694764565     0.90088646165696196
    70   0   1   0.0    -0.27040636626344849      3.4068801134148372      2.2044436471646964
    71   0   1   0.0    -0.23443807177567069      2.8217592967944984      7.1736253929064198
    72   0   1   0.0     0.30774032547438512      4.0577337935132523      9.1871075772807806
    73   0   1   0.0    -0.17436787848470101       6.001061792196225    -0.95269387089882607
    74   0   1   0.0    -0.71767313041012537      5.5753458959551292      2.9524105513574366
    75   0   1   0.0    0.013706886460564833       6.253869340604953      5.2501014304106439
    76   0   1   0.0    -0.30380054075882346      6.6304259011517868      8.5015119547655527
    77   0   1   0.0    -0.82835515263326021      9.8575222228596306     0.28460506944277963
    78   0   1   0.0    -0.15741156373888945      9.6337551453999293      4.0780306261240185
    79   0   1   0.0    -0.19211564961963115      9.1618286366100072      7.2079402627521612
    80   0   1   0.0     0.82496690029859188      9.9401539713643174      9.3805319131295466
    81   0   1   0.0      2.1355962765113174     0.10666452100893364    0.098503562903406644
    82   0   1   0.0      3.5297708967705952     0.88110733021823617      3.3695616359186791
    83   0   1   0.0      3.2984484934335327      0.1361312105053048      7.2253891088442597
    84   0   1   0.0       3.124975234864984 -4.0327135168034882e-05      10.374999998880206
    85   0   1   0.0      3.5281685839256824      2.7224876202895971      0.8218508849634637
    86   0   1   0.0      2.7672744223660546      2.2046990383324747      2.9666379115435517
    87   0   1   0.0      3.4458279341424189       2.570308235568401      7.0177151054562277
    88   0   1   0.0      3.1086217131689327       3.219612516932707      10.370379436878288
    89   0   1   0.0      2.6229579632133753      6.3745258200996995     0.85583124120800502
    90   0   1   0.0      2.2561855775574884      6.2550873054969314      3.6201117234308491
    91   0   1   0.0      2.5048763253985156      5.6514471827519328      6.7571303118165522
    92   0   1   0.0      3.2398945768894603      7.0265186072956149      9.9945305389769512
    93   0   1   0.0      4.0870354364488977      9.2442730934862105    -0.23957941257527596
    94   0   1   0.0      3.9494125202980994      8.8127234655037672       3.060276780591177
    95   0   1   0.0      3.1190406145691791      8.8678062631385046      7.1118114637284418
    96   0   1   0.0      2.4216277638077481      9.7659912425955646      8.7813727216784194
    97   0   1   0.0      6.4727740741885418     0.54259279314464359     0.80991652205454601
    98   0   1   0.0      6.5681360681970702     0.19032933292285181      2.1962566623973814
    99   0   1   0.0      5.2838652078128225     0.23660273481500077      6.1470305423754086
   100   0   1   0.0      7.1481543150590658    -0.37128963609548699      9.6105054828849248
   101   0   1   0.0      5.8802266689735774      3.2691183025987387     0.91787667936258299
   102   0   1   0.0      6.6454415577585131      3.0061684085063738      2.2142283341799587
   103   0   1   0.0      6.3910076421920037      2.8019343517978328      5.3141872880778092
   104   0   1   0.0      6.8443119865740218      3.7886624164784406       9.829252638482636
   105   0   1   0.0      5.7849117375800354      6.2687653993570507    -0.88506540320258187
   106   0   1   0.0      6.1159717053299731      6.2701355635723557      4.1157729181338514
   107   0   1   0.0      6.1774086797458931      6.4884585205154046      7.2184358699559663
   108   0   1   0.0      5.9973557775979307      6.5853188450334708      8.4674030800777942
   109   0   1   0.0       6.588430717596065      8.8245478856953969     0.76319533492088643
   110   0   1   0.0      5.9281389749107074      10.033550368509289      2.4447670305955844
   111   0   1   0.0      5.3763079578723714      9.6784121345994034      6.6302673955267357
   112   0   1   0.0      6.3090791978885559      9.3460348216397691      8.3771670145663624
   113   0   1   0.0      9.4923746289015476     0.55675062222375349     0.82234539041918853
   114   0   1   0.0      9.5859858575191907     0.83544528872377721      2.6175395212667927
   115   0   1   0.0      8.6411928322226643    -0.44978074036275945      6.7591407723973127
   116   0   1   0.0      10.101711798262521   0.0015986136701767156      8.6880593863364997
   117   0   1   0.0      9.1659920679590261      2.8256573592974377     0.93097243127880658
   118   0   1   0.0      9.4092891483558159      4.0533057091673239      3.4952333921087941
   119   0   1   0.0       9.045894190784848      2.6401242864709591      5.4397007288843566
   120   0   1   0.0      9.0725049848006325      3.2955113662148015       8.437224632563268
   121   0   1   0.0      8.9185918072539891       7.109768697105614    -0.22910554133768762
   122   0   1   0.0      9.8832823689831226      6.1499746627079324      2.2696381085876496
   123   0   1   0.0      9.2878189988912858      6.2277428842411746      7.2459438206263345
   124   0   1   0.0      9.5999001108925501      5.9480580021002769      8.4485816441667172
   125   0   1   0.0      9.4678186979457433       9.509073304444394    -0.98661493924783938
   126   0   1   0.0      10.068799023462503      9.0837947979201914      2.4663328265928737
   127   0   1   0.0      8.8828283425241796      10.205036781449335      6.5123089800573588
   128   0   1   0.0      8.6090841542541483      8.7836647799543037      9.6273798224282672
   129   0   1   0.0       -0.40441188757454     0.25204307521372898    -0.87916171062279791
   130   0   1   0.0    -0.14203380187542178    -0.24605630773597312       2.166207690608569
   131   0   1   0.0    -0.69074350329139411     0.72293899056692379       6.265252166364462
   132   0   1   0.0     0.29929364688444815    0.082750931936343322      8.4244340653072651
   133   0   1   0.0    -0.58349149267639788      3.5201346887588461    -0.70951127948308124
   134   0   1   0.0     0.69095944004531629      2.4047221159531795      3.0635604202057154
   135   0   1   0.0    -0.45447721250218592      2.5371433073297394      5.5807653832929551
   136   0   1   0.0    -0.15807806341037914       2.645879327307191      8.5116028104824437
   137   0   1   0.0     0.57343209776373916      7.0686666027882481    0.030993914457928123
   138   0   1   0.0      0.3577689322657977      6.5863234155289287      2.2538582484621998
   139   0   1   0.0    -0.91183272236377255      5.9925971691151094       6.569851323397474
   140   0   1   0.0     0.61516388536676847      5.4796778838439559      9.2071392496700444
   141   0   1   0.0    0.044240335038386744      9.3492297192998475    -0.99868848265529053
   142   0   1   0.0    -0.41452372346804078      10.056399407959718      2.5217878238013292
   143   0   1   0.0    -0.54060295595742469      8.7751474143190862      5.6601480529302153
   144   0   1   0.0    -0.27066965244799018      9.1895743435846757      8.4303544235076142
   145   0   1   0.0      3.3624456466674562   -0.025598272541502553    -0.97106348573178491
   146   0   1   0.0      3.0863380790588839    -0.08415946455963183        2.12929801627486
   147   0   1   0.0      3.7905988826017749     0.52239589866648273      5.7170078306994494
   148   0   1   0.0      2.6316260576428494    -0.80340194587586655      9.0416421346873079
   149   0   1   0.0      3.5389693576063834      2.7117044261364192    -0.81105865360510865
   150   0   1   0.0      3.2983279658806453      3.5709113456154982      2.2468653360132893
   151   0   1   0.0      3.3804591770075523      2.6833267959090472      5.3899619835898793
   152   0   1   0.0      2.9703839390543729      4.0181712355005406      8.9526979543358838
   153   0   1   0.0      2.5091774232199944      6.4027477896079708     -0.7729363924010263
   154   0   1   0.0      2.9477960335951026      6.2510376102066028      2.1408263986189069
   155   0   1   0.0      2.9876756396827622      6.1174524355202307      5.2683823742342728
   156   0   1   0.0      3.1721979480973856       6.568988814929476      8.4284174681279573
   157   0   1   0.0      2.5805184875435128      9.4489872785145241    -0.83550330053872957
   158   0   1   0.0      2.7997993020923073      9.5967976036671256      2.2057338094502388
   159   0   1   0.0      3.1174400022205155      8.7315807130697518      5.4845233722446229
   160   0   1   0.0      3.8486252406532895      8.9727504975911341      8.8141418638360598
   161   0   1   0.0      6.4657681263928177     0.52552897278334698    -0.82296015359081198
   162   0   1   0.0      5.3925359770985963    -0.51298979210076279      3.0850384856373432
   163   0   1   0.0      6.6663203371068427    -0.10195526660993939      5.3465164636133427
   164   0   1   0.0      6.1558295408155983    0.038929296375113616      8.3802053304823474
   165   0   1   0.0      5.5669379452161758      3.3912218598399058    -0.68011186628221798
   166   0   1   0.0      5.2958320781578765       3.411730846771313      3.0392737004339434
   167   0   1   0.0      5.8500590355507684      4.0413133636860312      6.2295783329326371
   168   0   1   0.0      6.3376164707995635      3.2228404609830443      8.3836622178897571
   169   0   1   0.0       7.238795626264694      6.2101040354946502    -0.14384547784341184
   170   0   1   0.0      5.3709231332740375      6.3820669503296035      2.6669801499739316
   171   0   1   0.0      6.0082915542399995      7.0439990369406047      5.6921984612914036
   172   0   1   0.0      6.8491333458617731      5.4548078533310518      9.2816796712794734
   173   0   1   0.0      6.5140627255647017      8.9455062276007293    -0.86360058848844223
   174   0   1   0.0        6.63889275579493      8.5792979805700504      2.6606502172227002
   175   0   1   0.0      6.2025322415743522      9.3914844055046007      5.2512632597700213
   176   0   1   0.0      5.3855955610948243      9.7987977095676406      9.6455558488856781
   177   0   1   0.0      9.4958155758622418     0.57307228712982916     -0.8105502762647494
   178   0   1   0.0      9.1875264878782215    -0.74234294328658013      2.4817421692623225
   179   0   1   0.0      9.2103237106692717    -0.10093690357334033      5.2688305644643796
   180   0   1   0.0      8.4851201978447808  -0.0019575490860898161      8.9188091345524736
   181   0   1   0.0      8.9421752860298565      2.5051053788917699    -0.65451770464804593
   182   0   1   0.0      9.3764556101623455      3.1644075469593336      2.1257778392961337
   183   0   1   0.0      9.9137358539725717      3.9187262858458278      5.9675778641787609
   184   0   1   0.0      10.246039168122227      2.6340098311694908      9.3601871100480754
   185   0   1   0.0      9.6284069650404458      5.7726392084255247    -0.84137481822097626
   186   0   1   0.0      8.4143098936867826      6.4390550563643938      2.9216955354770673
   187   0   1   0.0      8.4942480289966014       6.025145979925246      5.8332067236268657
   188   0   1   0.0      8.7782862214166411      7.0511243292175756      9.3288212648023112
   189   0   1   0.0      8.8145901169940206       8.565507876960007     0.17510929662764566
   190   0   1   0.0      8.5711387386690685      9.7124011394275982      2.6351351781925927
   191   0   1   0.0      9.4129120217853686      9.3110622009354316       5.252766508557337
   192   0   1   0.0      9.4419448712827716      9.4266856524261868      8.3785829299223078


Velocities

     1    -0.27723528236392392      -2.046515289136865     -4.0901227175670245
     2      5.1101528257344908    0.015997732059743572     -1.8037693800281258
     3    -0.34661193535486778     0.22031953317302444     -5.6459916661241047
     4     -2.1324966797496669      4.5121049474310091     -9.2882186627804373
     5      1.3697908200037301      1.4996814202672613    -0.69280247339596834
     6     -6.5334640994691666       3.298789579701221     0.14495492406767491
     7     -4.3395579443289218     -5.4521237379784431     -3.6531587048086065
     8     -4.4812831383559972       3.696322458220004     -1.3863116561719602
     9      -3.117658188164623     -3.0392042986226122      1.9210535813110834
    10      3.9488803964229278      6.3713143086585413     0.26663018254874105
    11    -0.12421349206167914     -3.1697235096173908     -5.5528237054883158
    12   -0.014799112460998994     -4.8241130405680268      4.3959801105627472
    13      3.6561605779871087    -0.88775460409564966     -1.4926305831420694
    14      2.2738364637983373       3.708194877100397     -1.8025027295460128
    15     -10.393532060670655     -2.8669145236829121      1.9321952510547022
    16     0.19478977707212924     -1.6668298603365941     -1.0810568152831583
    17     -2.3501417337337984      4.2628476129869997     -1.6800119484316633
    18     -5.2158000885778364    -0.48620158304130467     -1.1531306230863787
    19      -1.878833982535062     -2.3127010713265883     0.92115384965111147
    20     -5.5307711132574831      1.2459798229867849     -4.4913080405589199
    21     -2.0924306235412051     -0.5305014529511215     0.24235701438130478
    22      5.0052958624178228      3.7887751217013186     -4.6274213937187882
    23      2.8944567321325225     -5.1036042051482724      3.0690089413132995
    24      6.4759058172582913    -0.55086710034398012      8.3765853528771128
    25      5.9725974023253618     -1.2231134791028788     -9.8243819771016785
    26      2.5869772327540885     0.94592653012997907      1.0977226024567068
    27      3.1652311116956651     -3.2836179372904506     -5.2231351608021859
    28     -1.2639526291097378   -0.036758633927707771     -3.0602681149654276
    29     0.73418752138943777      3.6020148554251521      3.1274275289146805
    30     -2.7803534783060697      -5.627638101368384      7.9067126882770067
    31     -2.9868030479784879     -4.0030640375779161     -1.9707493794838371
    32     -4.6309152743653081     -2.1555490158285249     -5.6538896379423083
    33     -5.0042637696673333    -0.54255289281780061     -2.5852980060700115
    34      5.2348852988347687      1.9950166008812804       0.813102797805904
    35     -2.3932934918997559     -8.5486849519193431       3.620552064504583
    36      -2.228925732290608    -0.81777706423080232    -0.87336889251597216
    37     0.78778161468834074      5.9956396553683975     -1.1673078470582714
    38      3.2929837576803882       3.621863422618032      0.1769492557736442
    39      4.0952172943537217     -10.538274943614036     -1.3053720273679081
    40      2.6475597408211855      2.1333697287828981     -1.1573143872188989
    41      2.7049231077619535     -2.4178920912105775     -4.3692920100741262
    42     -1.7710315114723152      4.5218253498222474      6.8504447797090222
    43     -3.9894520963852975      3.4554249350588311      1.1602921615410227
    44      -3.526859289626791     -2.5313747996743121      0.9889945993467294
    45      2.6419098862698527      6.5230335851535868      3.3777624666548691
    46     -2.0539023055046579       4.815377440237147   -0.027011231476036776
    47     -1.8229375987181078      -0.798547187845151     -3.1559466879705882
    48      3.2887124886984354      8.3392607122943367      2.5316198464022257
    49     0.17498721471936618     -5.2330984738991724     -3.4264471613870544
    50     -7.6181029326971359      -1.489974232639069      5.6729008026075336
    51      3.4643372333116011     -1.7000775944928355     -2.9013425346978794
    52      5.8781330447457023      4.6535055930576448    -0.27268498325957857
    53     0.68377574546163822       -2.50317847676446     -2.3849065128128544
    54      9.4593273322881082      5.1733029737501397     -4.8221202734906319
    55     -5.8650445482132492     -3.1792846465547542      3.5112452377065897
    56       6.556083247085585    -0.58225612500302526     -1.1198292628673325
    57     0.32987035500942841     0.40809997350997612      2.1489624879197176
    58     -3.1072199265114833     -1.7811266618702386      2.1111082764015507
    59      6.6967248872316816      1.3356523713201427      3.4184356879788793
    60     0.58579109680018127     -2.3180287660784895     -3.1657006244160812
    61     -3.2622495537631093     -0.7131505129063378      1.5639935554093147
    62      -1.410937242576757      5.5327213655542087     -2.1896329097625804
    63     -3.1913048136546238      2.2805214530574269      -3.431675578787496
    64      -3.161404926788006      4.0048999009994155      1.3147545960391172
    65      -32.99299448232312      8.7515678444471323      1.5957759797469244
    66      14.752044288619448      28.131119560199657     -33.510391528005293
    67      29.513013482506853     -10.380189549736771      23.537920587299404
    68      4.9816928531090472      14.080849723918679     -20.272109444573143
    69      17.528751470309327      25.439211357238673      -1.266949936734987
    70      20.678577211567898     -3.5960779595524501      -2.553916266724523
    71      2.2357849948852202     -25.938461246021372      7.5371177184506832
    72      4.7897903604881309      1.1519403499956546      -3.958401520069541
    73     -16.379230082507824     -16.457728151773235      3.5449725170881856
    74      20.861507150547315     -3.3836427414818662     0.52298905467755996
    75      18.837977003008529      3.0499866843073455      31.749314427058859
    76     -1.5029214403118329      8.1148152284428807      11.366839960243302
    77      13.208958037624431      3.8003502120761485     -7.8370886351789384
    78      -4.638175132769903      -18.69664792539923     -21.563149899607613
    79      12.277931797109449      10.196021946307564      17.195664407546762
    80     -16.073746239456653      8.7523218224737445      21.018366466371091
    81     -15.512892264122581      -15.30184988531329      6.8210692089516067
    82      13.772278355158992      22.968424405919741      1.3023091239794824
    83      4.4856642523950621     -40.111818931120574      15.976204924869851
    84     -1.8323350973545365     0.72557875835001984      -3.307028366342105
    85     -1.8524525232982647      6.2665139996991588      10.230265926570226
    86      14.045153391606675     -12.857985060522489      9.6087939265612903
    87     -2.8422263393547609     -12.700063304033209     -14.615654953759647
    88      6.2108477666587527     -20.419958182143588      10.641043161184735
    89     -10.035734828388469     -5.7645326568301716     -2.1522502055817663
    90     -10.899365409107785     -8.7145597751092847     0.31505963418271549
    91      17.613824867082638     -34.656321035498344     -8.2075514446013429
    92      4.7090852411508068     -4.8206762149362419     -21.458233424770981
    93     -5.6066269844318803     -7.7821529397863713     -13.159954972668348
    94     -1.5782338090589572      16.113264643977239      24.452403121418222
    95     -25.453911493871257     -23.703807220298945      -11.10759918327401
    96      13.902453855422692      13.885599998696343      13.036994060336262
    97     -9.2893168857112212      22.231728913860955     -21.485953771543716
    98     0.80832981422076011     -5.3707277742022406      5.0925948873791613
    99       1.157259315851054     -1.4602204328706072     0.56357220061982272
   100      9.5130923602409077      9.4187219278873489     -15.170773192008147
   101      6.1285604205201487      5.4487412802359056      5.5818747730734382
   102     -7.0786277519709353      5.7211456742909608      21.630223344731981
   103     -14.970197127915478     -16.754163696266634      2.5871576019438591
   104     -1.4889656176664854     0.81614230671674537     -10.369894989715119
   105      4.4521927963415493     -8.1222945878497086       36.17802572744349
   106    -0.70015578943097034     -5.0391529439456093      3.9680983471107374
   107      8.1739376747233194       11.45575532470264      14.673188289761812
   108      14.064956374809087      22.117073837735092     -5.7098256903689446
   109     -17.024615029507331      12.365602077521705      2.0912442650505665
   110     -7.2234051394535967      24.216465638067767      21.013007287961102
   111     -3.1452172985536331      7.7452669831056333     -5.2272926149737637
   112     -9.7271060986221016      14.566289700162377      20.639543099160985
   113       17.95956207260323      4.6705575914280244      2.2741298445041518
   114       3.143696548316087      1.2977732958095791      3.2343412165043199
   115       21.74378745887029     -22.403370168000112      38.761193586080935
   116    -0.23738222304210504     -3.4227437256676434     -13.739605325739094
   117     -9.9050494453905635      18.955787657117053     -25.206929497786863
   118      13.200501891099272     -1.9438381525706436      7.8930166685550764
   119       14.05028281776654     -10.315113545456828     -13.955416036814064
   120      3.9407675613976756      18.381890790406281     -2.6578391208066132
   121      26.107009001226373     -26.455786065668885      3.7617793266944921
   122      5.7212127843769638     -3.7437729939793303     -9.8297186106880456
   123      9.4212513627254051      1.0050348615186862      15.213215937671945
   124      38.518297978525716      7.0789164078096256     -6.2828744727217147
   125     -12.803873514363394     -6.8576431781978098      2.1761276878384392
   126     -14.123784325791791     -8.2992582333353102     -11.079977413532418
   127     -19.912082686650002     -1.2872528374003751      -29.05277028586951
   128       9.005246759531202     -7.5073187070982632     -2.5134987041664587
   129       -19.0087441725289     -18.377739667469267      4.0699235611016187
   130     -3.5003760708060976      8.2326613131426605     -4.3375858270857126
   131     -10.518080800854218     -2.8867748100514303      4.7475329959450603
   132     -6.0195117367983446      21.826930772956011      2.2885438191080887
   133     -25.067857986837382     -17.401627214935019     -33.791550908128087
   134      1.5362274280095962  -0.0038847974574062745      4.7258935213337425
   135      11.842949337401512       6.177516948700748      14.681981639686111
   136     -21.181935222350667       15.74143273915781      4.4985564530769624
   137     -4.4888216063963151     -16.379632548870116     -4.5807057894464434
   138    -0.47135805311984075      7.0922783543241277     -14.648186867062153
   139      2.1525562986821982     -6.5028818813887828      5.1603776972983635
   140      2.1124394179918982      44.953293417663048      9.8398984747655796
   141     -14.884362252078368      24.419789028970758     -9.2610620032690871
   142       2.120537297571587     -14.159955938310301    -0.95365310679894344
   143     -3.2982133649486713      3.8324068712720827     -29.561946498393681
   144     -47.513601483466331      -50.34241554628943     -31.220143274726535
   145    -0.51844180031042819      33.974279753327913      -3.276644589251239
   146     -7.9543196556800462      16.682612051406206     -31.458534398826199
   147      12.220549214555707     -1.6605468817101827    -0.99717295759991786
   148     -3.1955379972655398      25.737982638161114       5.335066493293251
   149    -0.81149011498972135     -9.3544223548515077      9.2718106397076472
   150     -13.892002115968253     -6.0828074200545768      4.6459787483118378