LAMMPS (4 Feb 2025)
OMP_NUM_THREADS environment is not set. Defaulting to 1 thread. (src/comm.cpp:99)
  using 1 OpenMP thread(s) per MPI task
# LAMMPS script for running NVT simulation

units       metal
dimension   3
boundary    p p p
atom_style  full
atom_modify map yes

newton      on

read_data   ../start.lammps-data
Reading data file ...
  orthogonal box = (0 0 0) to (154.008 148.2 151.07609)
  8 by 8 by 8 MPI processor grid
  reading atoms ...
  9540 atoms
  reading velocities ...
  9540 velocities
Finding 1-2 1-3 1-4 neighbors ...
  special bond factors lj:    0        0        0       
  special bond factors coul:  0        0        0       
     0 = max # of 1-2 neighbors
     0 = max # of 1-3 neighbors
     0 = max # of 1-4 neighbors
     1 = max # of special neighbors
  special bonds CPU = 4.405 seconds
  read_data CPU = 4.594 seconds

pair_style  symmetrix/mace
pair_coeff  * * ../../../../00-common/models/ch2o-dens-inv_swa-1-6-8.json C H O
Loading MACE model from '../../../../00-common/models/ch2o-dens-inv_swa-1-6-8.json' ... success
  mapping LAMMPS type 1 (C) to MACE type 1
  mapping LAMMPS type 2 (H) to MACE type 0
  mapping LAMMPS type 3 (O) to MACE type 2

variable t equal step

group graphene type 1
8640 atoms in group graphene
group H2O type 2 3
900 atoms in group H2O

thermo 1000

######### NVT equilibration for 50 ps #############

dump DUMP1 all atom 100 nvt_equi.lammpstrj
timestep 0.001
fix NVT1 graphene nvt temp 300 300 0.1
fix NVT2 H2O nvt temp 300 300 0.1
run 50000
Neighbor list info ...
  update: every = 1 steps, delay = 0 steps, check = yes
  max neighbors/atom: 2000, page size: 100000
  master list distance cutoff = 8
  ghost atom cutoff = 8
  binsize = 4, bins = 39 38 38
  1 neighbor lists, perpetual/occasional/extra = 1 0 0
  (1) pair symmetrix/mace, perpetual
      attributes: full, newton on
      pair build: full/bin
      stencil: full/bin/3d
      bin: standard
Per MPI rank memory allocation (min/avg/max) = 5.912 | 6.285 | 8.472 Mbytes
   Step          Temp          E_pair         E_mol          TotEng         Press     
         0   296.33962     -1481090.5      0             -1480725.1      35.472918    
      1000   301.93682     -1481114.3      0             -1480742        73.897782    
      2000   300.85956     -1481120.9      0             -1480749.9      54.590875    
      3000   296.6599      -1481120        0             -1480754.2      65.489127    
      4000   298.01622     -1481124        0             -1480756.6      61.572294    
      5000   302.33212     -1481123.4      0             -1480750.7      66.37811     
      6000   300.20486     -1481125.5      0             -1480755.3      32.574218    
      7000   303.87189     -1481123.7      0             -1480749.1      38.501578    
      8000   298.53201     -1481123.9      0             -1480755.8      45.774649    
      9000   299.68997     -1481123.7      0             -1480754.2      27.968642    
     10000   298.09811     -1481123.7      0             -1480756.1      45.842963    
     11000   302.523       -1481125.6      0             -1480752.6      54.458523    
     12000   300.16706     -1481127.9      0             -1480757.7      19.402249    
     13000   301.52951     -1481124.7      0             -1480752.9      25.952927    
     14000   299.65967     -1481125.7      0             -1480756.2      24.232329    
     15000   301.59147     -1481120.4      0             -1480748.5      63.809912    
     16000   297.50957     -1481119.2      0             -1480752.4      50.749657    
     17000   295.19674     -1481123.9      0             -1480759.9      23.298814    
     18000   303.94522     -1481124.2      0             -1480749.4      26.787094    
     19000   300.69374     -1481129.1      0             -1480758.3      50.509363    
     20000   299.51697     -1481124.1      0             -1480754.8      35.176872    
     21000   301.20843     -1481125.6      0             -1480754.2      42.853716    
     22000   302.68779     -1481120.6      0             -1480747.4      56.172394    
     23000   296.81593     -1481124.6      0             -1480758.6      37.625606    
     24000   303.90731     -1481123.4      0             -1480748.7      73.876421    
     25000   301.01888     -1481123        0             -1480751.9      73.98117     
     26000   303.27399     -1481124.7      0             -1480750.8      77.20663     
     27000   298.44817     -1481122.8      0             -1480754.8      49.847762    
     28000   298.01397     -1481122.4      0             -1480755        43.475242    
     29000   298.5854      -1481127.6      0             -1480759.4      18.824826    
     30000   300.2467      -1481123.9      0             -1480753.7      21.234734    
     31000   302.17745     -1481125.1      0             -1480752.5      55.901105    
     32000   296.32945     -1481129        0             -1480763.6      53.759034    
     33000   301.81725     -1481125.9      0             -1480753.7      79.512676    
     34000   296.21459     -1481124.4      0             -1480759.2      41.852581    
     35000   301.37062     -1481126.6      0             -1480755        69.214002    
     36000   302.10847     -1481121.9      0             -1480749.4      53.01884     
     37000   299.01221     -1481119.9      0             -1480751.2      82.821493    
     38000   298.09546     -1481126.2      0             -1480758.6      46.598579    
     39000   300.66916     -1481128.8      0             -1480758        27.449099    
     40000   300.04089     -1481122.8      0             -1480752.9      67.93529     
     41000   301.6297      -1481132.3      0             -1480760.4      41.957421    
     42000   296.98256     -1481121.3      0             -1480755.2      31.159416    
     43000   301.62619     -1481126.3      0             -1480754.4      22.087506    
     44000   304.87072     -1481131.6      0             -1480755.7      32.217378    
     45000   304.06029     -1481125        0             -1480750.1      2.2468389    
     46000   299.13838     -1481125.3      0             -1480756.5      35.200291    
     47000   304.14306     -1481126.1      0             -1480751.1      57.367125    
     48000   299.91269     -1481122.5      0             -1480752.7      26.431398    
     49000   298.96152     -1481122.9      0             -1480754.3      60.42933     
     50000   300.02552     -1481122.5      0             -1480752.5      21.366083    
Loop time of 84142.1 on 512 procs for 50000 steps with 9540 atoms

Performance: 0.051 ns/day, 467.456 hours/ns, 0.594 timesteps/s, 5.669 katom-step/s
100.0% CPU use with 512 MPI tasks x 1 OpenMP threads

MPI task timing breakdown:
Section |  min time  |  avg time  |  max time  |%varavg| %total
---------------------------------------------------------------
Pair    | 0.21274    | 8330.4     | 84110      |18346.3 |  9.90
Bond    | 0.0033191  | 0.0061986  | 0.027058   |   6.1 |  0.00
Neigh   | 0.027126   | 0.17259    | 6.4334     |  98.7 |  0.00
Comm    | 0.59196    | 4603.2     | 37125      |13668.7 |  5.47
Output  | 7.7598     | 9.4047     | 11.181     |  31.2 |  0.01
Modify  | 3.3866     | 71195      | 84128      |8772.0 | 84.61
Other   |            | 3.497      |            |       |  0.00

Nlocal:        18.6328 ave         392 max           0 min
Histogram: 446 1 0 58 4 0 1 1 0 1
Nghost:        80.1094 ave         871 max           0 min
Histogram: 396 9 5 63 13 16 5 1 3 1
Neighs:              0 ave           0 max           0 min
Histogram: 512 0 0 0 0 0 0 0 0 0
FullNghs:      1624.55 ave       66995 max           0 min
Histogram: 447 57 5 0 1 0 1 0 0 1

Total # of neighbors = 831768
Ave neighs/atom = 87.187421
Ave special neighs/atom = 0
Neighbor list builds = 2132
Dangerous builds = 0

write_restart nvt_equi.restart.*
System init for write_restart ...
write_data nvt_equi_final.lammps-data
System init for write_data ...

Total wall time: 23:22:37
