LAMMPS data file via write_data, version 4 Feb 2025, timestep = 100000, units = metal

4050 atoms
3 atom types

0 38.501999999999995 xlo xhi
0 37.05 ylo yhi
0 100 zlo zhi

Masses

1 12.01099999691024
2 1.007999999740698
3 15.99899999588435

Atoms # full

3192 0 1 0 3.246319465723285 2.850818743751545 1.1092457103455393 1 0 0
3201 0 1 0 4.645181514122658 2.845638768950042 1.1135801436318518 1 0 0
317 0 2 0 2.7101027491889913 3.7125799924165657 4.712709163430416 0 0 0
645 0 2 0 1.0131444589034384 1.4908340841657497 3.4000711892178455 0 0 0
2740 0 1 0 1.0729100468021817 1.631642654503703 0.9793872515647936 1 0 0
2741 0 1 0 2.5096767428702424 1.5797619590009286 1.0301693056345596 1 0 0
2759 0 1 0 4.6372344092891 0.3712658337682065 0.7698953123274559 1 0 0
3181 0 1 0 0.36503167530648706 2.8583292346144646 1.0030971619677909 1 0 0
2750 0 1 0 3.223090776546667 0.399631512524769 0.7319663401420146 1 0 0
3182 0 1 0 1.0782147070759702 4.112321907298777 1.143818858287253 1 0 0
2739 0 1 0 0.3431301686374012 0.3900713277197505 0.9025045267365187 1 0 0
3193 0 1 0 2.490405510113578 4.068713445215418 1.1083583303509923 1 0 0
2108 0 2 0 2.6819543075135845 1.5931954813489118 4.786108479911495 1 0 0
2107 0 3 0 3.561008190729501 2.0613061358201827 4.946690821306181 1 0 0
2109 0 2 0 3.884612068571837 1.8799298775896518 5.851396369862802 1 0 0
643 0 3 0 1.0854417860119108 1.0075596652146015 4.229345809228377 0 0 0
191 0 2 0 4.659767965639815 0.10650026351861983 3.9627539764768778 0 0 0
644 0 2 0 1.3553251035126215 0.10228668291229084 4.047720385079887 0 0 0
316 0 3 0 2.289345516490695 4.61269503984171 4.544439126501781 0 0 0
2929 0 3 0 1.705167583849171 1.785880900565295 7.210417185840645 1 0 0
3569 0 2 0 3.4903654638769046 0.11294573256400733 7.693725727489229 1 0 0
3536 0 2 0 2.290102794250928 2.2708473767695048 11.041238471400566 1 0 0
3535 0 3 0 1.8582403460011825 1.543809565668146 11.599601811831425 1 0 0
3537 0 2 0 1.116618649049211 1.1072681002544826 11.085774783900485 1 0 0
3545 0 2 0 4.716604117777874 3.030102136586764 8.110059278503082 1 0 0
2930 0 2 0 0.9175579876139089 2.391920153620367 7.319534053527019 1 0 0
2931 0 2 0 2.487954489219362 2.1054543229973217 7.65601267291737 1 0 0
3321 0 2 0 4.726343161191112 0.024266742827950504 10.811519056377552 1 0 0
3592 0 3 0 3.305371387588927 3.830446062702426 10.339237215306637 1 0 0
3326 0 2 0 1.0516217988063017 0.4069476909398396 8.47030123284576 1 0 0
3544 0 3 0 4.700061180922827 2.1081961317435556 7.768580411265282 1 0 0
3593 0 2 0 3.6665264365898134 4.466124514231722 10.989824383500078 1 0 0
3594 0 2 0 2.6868374971016826 4.357294130342032 9.856255593190177 1 0 0
104 0 2 0 4.30315468864801 3.5827956051053924 16.26229345426386 0 0 0
629 0 2 0 2.485622772221044 2.3365660707493303 17.04505438850143 0 0 0
2954 0 2 0 3.8187247434645575 1.2603993657891306 13.188746928328046 1 0 0
3106 0 3 0 1.214178292088598 3.4085183196144233 13.813966401872985 1 0 0
630 0 2 0 3.3067251702018297 1.3596890960869903 16.03510724846923 0 0 0
628 0 3 0 3.036212529862117 2.281289506853544 16.1999556278376 0 0 0
2953 0 3 0 3.680384310359276 0.6170366570718113 13.903470382636613 1 0 0
3108 0 2 0 1.6648877901401369 3.0367461971042453 14.597556518308734 1 0 0
4016 0 2 0 0.27349942101584945 0.045398782389403286 13.838123814409272 1 1 0
3107 0 2 0 1.1789895242340265 2.7053640131114682 13.124926032768567 1 0 0
2905 0 3 0 0.7751873381077181 2.8024014394155214 18.12437583067126 1 0 0
2907 0 2 0 0.25168459288727413 3.519308624154646 18.535821689081313 1 0 0
103 0 3 0 4.755170218581358 4.388666224144866 16.597941404209877 0 0 0
2906 0 2 0 0.1833920924955564 2.4876989754987755 17.487638634734214 1 0 0
4017 0 2 0 1.7395095377235799 0.30937664815300836 14.201524462365986 1 1 0
3252 0 2 0 3.611361225196348 3.474452175680886 23.88780507101311 1 0 0
3278 0 2 0 0.9550347889163925 2.0403628251220036 24.012080951452006 1 0 0
67 0 3 0 4.737814731005978 1.6135361024720978 23.695682899716456 0 0 0
3250 0 3 0 3.159848114869271 4.2492487814853375 24.352794344469793 1 0 0
3277 0 3 0 0.25446760195346474 2.7719237883309824 24.044070887115318 1 0 0
760 0 3 0 1.7792367001797487 1.2153404166879527 20.71210429785364 0 0 0
69 0 2 0 4.002518826290416 0.9936670545930829 23.872800359933166 0 0 0
589 0 3 0 1.561311563593597 4.328651804404372 20.859661391913473 0 0 0
856 0 3 0 4.27449508820702 0.3761799231818407 19.494958817415746 0 0 0
3415 0 3 0 2.1238959692411825 0.7445185298209941 23.63944314690552 1 0 0
3416 0 2 0 2.146650517212755 0.8842711649315267 22.66852955925545 1 0 0
761 0 2 0 1.1545333893753658 2.011348216976317 20.436019135703205 0 0 0
762 0 2 0 2.517675916772315 1.3709957407395372 20.150369869162184 0 0 0
3279 0 2 0 0.8035418639237596 3.5550423463057723 24.187345113620598 1 0 0
749 0 2 0 4.6255829172960015 3.524692417676991 21.065923831514365 0 0 0
3091 0 3 0 3.5486910616979155 2.974025972783961 26.83523828739045 1 0 0
225 0 2 0 1.6764196425839046 0.9618245883211308 27.568148762132992 0 0 0
3093 0 2 0 3.158814578182236 2.0848313475070337 26.633162623606147 1 0 0
223 0 3 0 2.1704778781482332 0.6879020674218325 26.797791418712457 0 0 0
224 0 2 0 1.4101484141468412 0.6629748596082979 26.10718792128986 0 0 0
3251 0 2 0 3.443470037099865 3.9954613758043602 25.28673324513969 1 0 0
3092 0 2 0 4.511392066000287 2.780262275494587 27.050932144483006 1 0 0
3195 0 1 0 2.5098832028488838 6.584588662369711 1.1224667974870906 1 0 0
2242 0 3 0 0.14292937607366854 7.308491317867659 4.390377857598442 1 0 0
2243 0 2 0 0.7433382801668514 6.649227418420766 4.022500011775536 1 0 0
3186 0 1 0 1.1114403891406395 9.086907807895946 1.2784806441928522 1 0 0
3197 0 1 0 2.517558586775884 9.071529553138781 1.3375238780156866 1 0 0
3196 0 1 0 3.222486228219749 7.850893306446635 1.2068671313976052 1 0 0
3183 0 1 0 0.3691660768886662 5.302806845165433 1.2986340208996283 1 0 0
3203 0 1 0 4.651224060605541 5.296864235126531 1.3871093725983343 1 0 0
3185 0 1 0 0.35755818372327813 7.850619072977212 1.1752109965139876 1 0 0
3205 0 1 0 4.638875700808258 7.786089798998058 1.3666788394537979 1 0 0
3194 0 1 0 3.240225616836312 5.295302782831005 1.1179428205101152 1 0 0
3266 0 2 0 3.2885128470760634 8.347284968126502 5.6309595053897255 1 0 0
3184 0 1 0 1.0546342164588471 6.581979545086463 1.1590143187427113 1 0 0
3305 0 2 0 1.0883835733858178 5.085964207062695 5.790888026303869 1 0 0
318 0 2 0 3.1013842097284834 5.175814594988595 4.492014588065333 0 0 0
3265 0 3 0 2.732602841390156 7.823546476219677 6.198628897672336 1 0 0
3267 0 2 0 1.880222205101573 7.611176009261711 5.820634740843965 1 0 0
3306 0 2 0 0.25651270034764906 6.346848031484287 6.223830192853584 1 0 0
3949 0 3 0 4.481528457722548 5.190550651675695 7.302514677877329 1 0 0
3117 0 2 0 1.002367242294631 5.471318340646283 8.361811893794707 1 0 0
3487 0 3 0 1.9505691847938356 8.166005023064558 10.697631212269629 1 0 0
2996 0 2 0 3.2484923308887708 8.079703072308758 12.163031177531902 1 0 0
3488 0 2 0 2.080437566770501 7.279975485934854 10.269276953618377 1 0 0
3458 0 2 0 2.718360835018996 8.849191227944175 7.593474024944697 1 0 0
3951 0 2 0 3.8843442489057134 5.939674354759146 7.208717828565617 1 0 0
3115 0 3 0 1.2879464328827925 5.838363409646755 9.172908876109497 1 0 0
3489 0 2 0 1.9179678373486924 8.78893276679168 9.949738124076264 1 0 0
2995 0 3 0 4.244432181576377 7.880002144445672 12.25175019914041 1 0 0
3999 0 2 0 0.6392355767165454 8.835074931549856 7.622687607245406 1 0 0
1269 0 2 0 4.4744968642716065 8.728514904249478 10.542141272181986 0 0 0
3304 0 3 0 0.43991194393428856 5.376778314663043 6.501280723687096 1 0 0
3998 0 2 0 0.10519076389802853 7.595600060092791 8.19108243646809 1 0 0
3498 0 2 0 0.3057881831221993 7.8961666146260026 11.520935263760077 1 0 0
3116 0 2 0 0.540685824859079 5.502245531622521 9.727405257088783 1 0 0
203 0 2 0 1.7262151082990556 8.377149525803683 16.071121329364722 0 0 0
3440 0 2 0 0.7754422552834933 6.478465333781012 15.537934485490618 1 0 0
324 0 2 0 4.49081900539456 4.8170288750985835 18.437297918002606 0 0 0
3441 0 2 0 2.1674450808745447 6.191212110848588 14.846841191415761 1 0 0
1571 0 2 0 0.8412558059666442 9.03095388522051 18.053161365473574 0 0 0
2997 0 2 0 4.437859546114752 7.978296475079672 13.199654288076344 1 0 0
3439 0 3 0 1.712119556245006 6.7501416508687075 15.60438708765273 1 0 0
606 0 2 0 1.8746355254824185 5.959653604184023 17.65364011045125 0 0 0
151 0 3 0 4.706764953030281 8.78612123073222 14.995668497537338 0 0 0
1918 0 3 0 4.127297777343633 7.6865556217498385 17.575996455887218 0 0 0
709 0 3 0 3.590646382218967 5.512327468863252 14.19447323331958 0 0 0
1919 0 2 0 4.349019633583961 8.051595346340218 16.65353182565449 0 0 0
604 0 3 0 1.650816023795026 5.948812505746362 18.58893446678245 0 0 0
1920 0 2 0 4.292947559015193 6.738815548960775 17.61913206252149 0 0 0
711 0 2 0 3.921855814839913 5.294610501571141 15.061177248496351 0 0 0
710 0 2 0 3.3456759604961666 4.632226060668088 13.903324130425943 0 0 0
322 0 3 0 4.656253633550402 5.120321868788848 19.299772832114307 0 0 0
3037 0 3 0 3.707047697011245 7.321959305277485 20.828999520799165 1 0 0
1570 0 3 0 0.9694983181008247 8.799777965402184 19.031501980375555 0 0 0
591 0 2 0 1.6167928030157777 4.958992254759377 21.620280219050965 0 0 0
3270 0 2 0 1.0775456191467336 6.518468850419012 23.343875545407926 1 0 0
3038 0 2 0 3.1992773696407197 7.070130426421521 21.59979855759306 1 0 0
605 0 2 0 1.4841714566703117 6.878814737519817 18.783065243520763 0 0 0
3268 0 3 0 1.8230999105750318 6.180601082113733 22.80591096634619 1 0 0
3269 0 2 0 2.244862216337218 5.468669766092205 23.37311027487176 1 0 0
3039 0 2 0 3.249231312089104 8.15375656577963 20.53597371473525 1 0 0
323 0 2 0 3.9028859508170224 5.637684563833482 19.66187584724423 0 0 0
708 0 2 0 4.732422700225992 9.229340289315696 23.773180502063013 0 0 0
590 0 2 0 1.773298021516546 4.808688688415735 20.01037747490945 0 0 0
2917 0 3 0 2.7252620484929966 8.027232631787296 26.850550761483216 1 0 0
2918 0 2 0 2.3791362767825213 7.101682192070579 26.786225525467714 1 0 0
707 0 2 0 4.266847138091928 8.777027453841852 25.278613104134344 0 0 0
2919 0 2 0 2.019966571867299 8.63557221538626 26.58287414317654 1 0 0
520 0 3 0 0.5141989281579574 5.409637141532118 26.85218913282264 0 0 0
101 0 2 0 4.292457081883082 7.938721786102135 28.07995958459743 0 0 0
106 0 3 0 0.24996376685794292 9.09667058933849 25.72959954975037 0 0 0
522 0 2 0 0.5325872206115689 4.686601165612149 27.510700229358367 0 0 0
102 0 2 0 4.732539784383464 8.387604079341749 29.522394083357693 0 0 0
3198 0 1 0 3.2105933090302403 10.29973286179809 1.4777917675619319 1 0 0
3209 0 1 0 4.649478432635701 12.73716811907659 1.4643291692954976 1 0 0
3207 0 1 0 4.649732309880724 10.257844225970173 1.4750089724717594 1 0 0
3599 0 2 0 3.3490657730543445 11.323165874717713 4.592369212718957 1 0 0
3322 0 3 0 0.04318521069688252 10.574790239019135 4.3642776544097455 1 0 0
3187 0 1 0 0.40039112307159624 10.320454569911142 1.3574004889990654 1 0 0
3189 0 1 0 0.29070206707618934 12.775224075014068 1.375799978359486 1 0 0
3600 0 2 0 1.9319024093582673 10.81613115289696 4.610272948946963 1 0 0
3199 0 1 0 2.4607128826187514 11.515933605567632 1.4705065396183832 1 0 0
3188 0 1 0 1.0731716468974601 11.550614944349945 1.3923782145297408 1 0 0
3200 0 1 0 3.2225254360905065 12.731931753336085 1.4963389164811383 1 0 0
3598 0 3 0 2.8864247835364196 10.534228555440766 4.834859905674425 1 0 0
1275 0 2 0 4.607405494853178 13.628868620590744 5.019607766542576 0 0 0
1021 0 3 0 3.230370092566771 13.282755471592624 10.131567208644322 0 0 0
3459 0 2 0 2.623759389863556 10.398699419749502 7.9160424210725475 1 0 0
3773 0 2 0 0.6358705949412914 13.301432823928494 7.1240200575917765 1 0 0
875 0 2 0 3.5123638668157713 12.343799627777813 8.429735843797438 0 0 0
3457 0 3 0 2.3637701111161182 9.467862853751262 8.25600546980641 1 0 0
876 0 2 0 2.874242905685573 12.614264892701115 7.00230828785939 0 0 0
874 0 3 0 3.496807127955543 12.00544360637263 7.493663942329462 0 0 0
3567 0 2 0 1.0318434151247151 12.479180260552242 11.882138047172212 1 0 0
1022 0 2 0 3.9755279984354424 13.072655792534738 10.773606084053583 0 0 0
1023 0 2 0 2.517738465895983 12.692397454514518 10.526457692997415 0 0 0
3565 0 3 0 0.5152476417850581 12.511845831583868 11.035103431217333 1 0 0
3566 0 2 0 0.3213384939902436 13.43362338572758 10.794928112153556 1 0 0
1268 0 2 0 4.119732704114027 9.411729630467677 9.279011886129927 0 0 0
3772 0 3 0 1.4331517378152152 13.864325909413507 7.216571023244437 1 0 0
204 0 2 0 2.1582030809348955 9.84054220643666 16.269077510511956 0 0 0
3047 0 2 0 2.1860797872925386 12.572330829726045 13.993851861628077 1 0 0
2985 0 2 0 3.366702293556088 11.976111428601742 15.951890810242777 1 0 0
2049 0 2 0 0.8320402957046927 11.584056144864313 16.850888554677294 1 0 0
2984 0 2 0 3.9875957948563667 11.111133342917947 17.127112307056773 1 0 0
153 0 2 0 4.464947109669403 9.732572989028228 15.28513457726057 0 0 0
3046 0 3 0 2.0963444845014676 11.915261633438464 13.261921376442059 1 0 0
2983 0 3 0 3.466679627322184 11.03750811162258 16.32927279641971 1 0 0
2047 0 3 0 0.2874754007330837 12.319206173119005 17.34535921555531 1 0 0
2048 0 2 0 0.6696231816583554 12.46646788410895 18.24915608707688 1 0 0
3048 0 2 0 1.436435630254038 11.23646322845838 13.59014690573582 1 0 0
676 0 3 0 3.0711330236214947 13.532666485547043 15.347662658382832 0 0 0
3511 0 3 0 0.11673007808855829 10.135492258357372 13.895298989644507 1 0 0
603 0 2 0 4.458973374280512 11.405846155582179 12.63781974022709 0 0 0
3513 0 2 0 0.3343758724286156 9.57729099484467 14.711256773734508 1 0 0
202 0 3 0 1.3445141828761402 9.283066272784607 16.267511616932826 0 0 0
1254 0 2 0 3.35739683126909 10.932686546167389 20.03595337869846 0 0 0
3436 0 3 0 0.9634485979545989 12.785891884529056 20.150158894283457 1 0 0
3437 0 2 0 0.2078890773467658 12.491742637396673 20.68648513745421 1 0 0
3392 0 2 0 0.9647533921242201 13.18939219931046 23.82751623181565 1 0 0
1572 0 2 0 1.433539986688402 9.559873258718902 19.440695407438646 0 0 0
3595 0 3 0 1.767178054900238 10.087261632998985 23.363794350033483 1 0 0
1252 0 3 0 2.4433951830411478 10.699020622504156 20.303901476953314 0 0 0
1253 0 2 0 1.964658794420809 11.608549830173736 20.283246391134263 0 0 0
3596 0 2 0 1.5846914071358498 10.118544371975531 22.47733144528488 1 0 0
517 0 3 0 4.220295386051575 13.445315435438587 21.631442130545796 0 0 0
3597 0 2 0 2.7203654733893288 9.805268751992523 23.480822413735233 1 0 0
518 0 2 0 4.555519826338597 12.551978896618627 21.60213089934389 0 0 0
3391 0 3 0 1.7362215596332644 13.699947286936242 24.154984580597354 1 0 0
3438 0 2 0 1.4002854027252944 13.67161561872474 20.483972675729945 1 0 0
519 0 2 0 3.389958099320231 13.40192781067765 22.14913454230654 0 0 0
706 0 3 0 4.355700609937976 9.51343825977906 24.617120865864813 0 0 0
3475 0 3 0 4.412932139955852 13.704466763797349 27.841631881504362 1 0 0
3477 0 2 0 4.111363741936559 12.774963914942694 27.5681594294634 1 0 0
982 0 3 0 4.2246018684964035 12.450905610381662 25.32132648886693 0 0 0
983 0 2 0 3.5589965670147072 13.110874123027019 25.04284383954789 0 0 0
108 0 2 0 0.7392491874120017 9.603749377869296 25.028501691068932 0 0 0
984 0 2 0 3.8426813107502458 11.608932724599962 25.096844222501687 0 0 0
3643 0 1 0 2.4851478449999123 16.466091710606076 1.6252707985947195 1 0 0
3632 0 1 0 1.054117423232105 16.481576382970516 1.6475378255368884 1 0 0
3653 0 1 0 4.680975989522474 17.677836790050105 1.478589373112352 1 0 0
3642 0 1 0 3.181467873833876 15.200254615325946 1.6409052814317902 1 0 0
3651 0 1 0 4.581628677227001 15.160598240624028 1.6866740583070774 1 0 0
3644 0 1 0 3.2385400665732966 17.712013447538578 1.5238278010689252 1 0 0
3662 0 2 0 0.7898401191040371 15.506062744109109 4.7595959828602545 1 0 0
626 0 2 0 3.7656656152416135 15.669718377061036 5.4558344353769845 0 0 0
3633 0 1 0 0.38844575326510694 17.75460343292215 1.590054527542432 1 0 0
3663 0 2 0 1.5412749637100944 14.834484681593505 5.9468211905540915 1 0 0
3631 0 1 0 0.3227209225534116 15.259958601998246 1.5464084223813135 1 0 0
3191 0 1 0 2.5034482325842498 13.956520834570288 1.610839173448177 1 0 0
3527 0 2 0 2.253658691432189 17.042849627974007 5.597959393992925 1 0 0
3661 0 3 0 1.6675287360743212 15.342532114344815 5.08698469423994 1 0 0
3528 0 2 0 3.5941216044995397 17.900264265143246 5.765534978694768 1 0 0
3190 0 1 0 1.040167849912065 13.95543822041741 1.4909103883154566 1 0 0
3526 0 3 0 2.61671820616862 17.869647903667968 5.912154789082252 1 0 0
625 0 3 0 4.628870432802987 15.357852960659324 5.275894765575204 0 0 0
3344 0 2 0 0.289363291502706 18.47611383978451 6.030764321470471 1 0 0
1046 0 2 0 3.332829696575119 15.791078925738825 10.804727217545809 0 0 0
3777 0 2 0 0.9139112857575981 17.254785023203418 8.531720975888625 1 0 0
3774 0 2 0 1.3549481405497419 14.421042418758889 8.017863051690108 1 0 0
3810 0 2 0 3.5116093132813413 18.27056190951026 11.587353651463353 1 0 0
3776 0 2 0 0.4966788794633705 16.1163805172878 9.507503846906017 1 0 0
3846 0 2 0 3.232505216956861 16.953271428717144 8.02026828882024 1 0 0
1045 0 3 0 3.7490155911945813 16.368162322426457 11.449709087109444 0 0 0
3775 0 3 0 1.1245809244233123 16.342829788397694 8.784636603557573 1 0 0
3844 0 3 0 4.088213627434688 16.53590641817021 8.250722618196537 1 0 0
1047 0 2 0 4.105461427585887 15.762148923425727 12.255342606500331 0 0 0
3845 0 2 0 3.927750466117496 15.686865085975683 7.702923515766594 1 0 0
561 0 2 0 1.8956686434355576 16.586460104922548 12.255581017925353 0 0 0
769 0 3 0 2.8795625110633067 17.570550991768016 18.705400508311577 0 0 0
677 0 2 0 3.741961267300429 14.109811950880973 14.849149434338301 0 0 0
693 0 2 0 3.4114285832412112 18.42607707560515 17.156002597112614 0 0 0
560 0 2 0 1.0032367634706365 17.801815013648252 12.77101882250446 0 0 0
526 0 3 0 4.675776250032368 15.00604990603858 13.9245711765736 0 0 0
820 0 3 0 0.7070500497453965 17.152491278523236 16.436901205267 0 0 0
120 0 2 0 3.0532399419507597 15.96082423294755 18.014299707995146 0 0 0
559 0 3 0 0.9589393755425526 16.82725174642852 12.644081362832894 0 0 0
119 0 2 0 3.7423515639070115 14.613909686915308 18.432397720647852 0 0 0
118 0 3 0 2.9525434813736595 14.897583362521722 17.902662172794166 0 0 0
692 0 2 0 2.239518517352832 18.025461627591728 16.2039167547782 0 0 0
678 0 2 0 2.9770019890026576 13.991517866306323 16.247616025534043 0 0 0
3308 0 2 0 0.40554856489739166 15.8691644618522 17.799148143063427 1 0 0
3309 0 2 0 1.233871861248414 14.685026200732892 18.258785674038077 1 0 0
2141 0 2 0 4.487617434318581 17.72442905833101 15.390778343910139 0 0 0
3307 0 3 0 0.352644370604251 15.111338916818616 18.42784533576699 1 0 0
822 0 2 0 0.6884919669208234 16.60609581354966 15.627395615598617 0 0 0
691 0 3 0 3.1863506944701685 18.455278224461527 16.203702998308753 0 0 0
770 0 2 0 3.3492645686588185 18.135373825582022 19.370605940502376 0 0 0
3785 0 2 0 1.8235743591073303 17.457115869567964 23.781583667959033 1 0 0
3784 0 3 0 1.5468903332721684 17.79239597705711 22.942223254110473 1 0 0
98 0 2 0 2.6456130607014368 15.357466579800173 20.839983149496124 0 0 0
97 0 3 0 1.6915731332495474 15.226605627243964 20.803314250014953 0 0 0
3786 0 2 0 1.5478952928842942 16.950528516528752 22.36862503596154 1 0 0
771 0 2 0 1.8750915108937782 17.83042290041752 18.88935261586488 0 0 0
3393 0 2 0 1.285494787085998 14.448998253042426 24.529108156120305 1 0 0
99 0 2 0 1.2813876185707498 15.82021768860668 20.033343341182604 0 0 0
269 0 2 0 4.64351927535339 17.344679416389155 21.116368192378445 0 -1 0
2619 0 2 0 3.942536558436277 18.51820985983426 23.914856591363204 0 0 0
511 0 3 0 2.2422387163090765 16.278759345924275 25.460639038308194 0 0 0
971 0 2 0 0.6214610070450567 17.859726360962725 28.03204780023984 0 0 0
742 0 3 0 1.7798911268331012 14.535932714047666 28.83428923506966 0 0 0
3476 0 2 0 4.678966494182169 14.191819451829526 26.989109868273594 1 0 0
512 0 2 0 1.7795750153482748 16.636865024815243 26.31054557280043 0 0 0
744 0 2 0 2.6214555139589604 14.21081342017972 28.557233372689907 0 0 0
972 0 2 0 1.794850358521998 16.77839075301282 28.33272648331751 0 0 0
513 0 2 0 3.1821162596153285 16.20439893383749 25.680976487006937 0 0 0
970 0 3 0 1.4639262996642508 17.51037438070161 27.732565360230133 0 0 0
743 0 2 0 1.128007124493141 14.434308419664893 28.100359139588107 0 0 0
3637 0 1 0 0.33652708478141463 22.621124999594347 1.256955159571375 1 0 0
3635 0 1 0 0.33166725009007414 20.148575124920296 1.3013188587689473 1 0 0
3657 0 1 0 4.604838289808432 22.66437394579295 1.2967713139243402 1 0 0
3647 0 1 0 2.494895039772028 21.3985429995402 1.2112933424671286 1 0 0
3646 0 1 0 3.3019249465926537 20.16637292103158 1.1861256691200655 1 0 0
3655 0 1 0 4.722274411724992 20.167785550152125 1.268622873778362 1 0 0
3636 0 1 0 1.0400678051109626 21.4069921403867 1.2635363326259363 1 0 0
1283 0 2 0 3.1077068605888067 22.477700643887584 5.528986425160765 0 0 0
1284 0 2 0 1.8684422650539085 22.606445242855354 4.768885126269949 0 0 0
3648 0 1 0 3.1488784081040153 22.610930198876375 1.260545445573688 1 0 0
3634 0 1 0 1.1421772922098001 18.959903256928193 1.4439023003860154 1 0 0
1282 0 3 0 2.824071729969088 22.518689089436744 4.590056239382876 0 0 0
3645 0 1 0 2.5758044969437432 18.958586824368545 1.3358526203187906 1 0 0
2184 0 2 0 4.018872891424305 21.203485178324513 4.14029806153687 0 0 0
1264 0 3 0 0.13789798060056987 22.80760435356319 5.303457120150641 0 0 0
1062 0 2 0 3.2224384046092847 21.961591588256603 7.962415976296408 0 0 0
3887 0 2 0 1.3053622647340055 19.716452611825957 8.4494014370743 1 0 0
3886 0 3 0 1.1441995426850584 18.903315397078767 7.950240382199479 1 0 0
1218 0 2 0 3.469905402633728 20.140515497678493 10.045724448144526 0 0 0
1060 0 3 0 3.2712928083124906 22.719796164502295 7.351136599445888 0 0 0
1216 0 3 0 3.590524948519283 20.61829168716772 9.222926788692716 0 0 0
1166 0 2 0 0.39176664004456535 20.357581038243886 12.442106600351952 0 0 0
1279 0 3 0 0.30910166769286945 20.90313449468004 10.123073211023591 0 0 0
3809 0 2 0 2.4442651450009736 19.32686330913546 12.098948971339713 1 0 0
1217 0 2 0 4.296392545783676 20.198489791135568 8.729906170103472 0 0 0
3808 0 3 0 3.3099284839122696 19.243294973728766 11.629711795415725 1 0 0
3888 0 2 0 1.9293894348221727 18.834561350505584 7.397435788684647 1 0 0
1280 0 2 0 0.39154753944797566 21.868277985656178 10.303342334293811 0 0 0
1182 0 2 0 2.5497419551323928 19.941223725328275 15.653562935456867 0 0 0
1180 0 3 0 2.025510090547285 20.78701356785411 15.311942312452125 0 0 0
1167 0 2 0 1.175810384880772 20.156667339143993 13.73586648811882 0 0 0
2012 0 2 0 0.32807589390412173 21.361143600125317 18.4181823131239 0 0 0
1181 0 2 0 2.7108081805051336 21.533680271932184 15.320881434104093 0 0 0
1165 0 3 0 0.8331622392454862 19.68454784562568 12.991157198525181 0 0 0
1228 0 3 0 4.548317356661069 22.599089449984007 18.41728327692358 0 0 0
1195 0 3 0 3.9454210854043974 22.929515923941022 15.809845613373415 0 0 0
1331 0 2 0 0.5443254561211317 20.95861328465998 16.291898131158458 0 0 0
1196 0 2 0 4.637663474213135 22.876352954284815 15.117975557663632 0 0 0
1197 0 2 0 4.329635225003144 22.934088918140553 16.698991035726447 0 0 0
1054 0 3 0 0.43085761883853524 22.803199461340963 13.10723835522816 0 0 0
1229 0 2 0 4.697539331416617 21.629611784356484 18.514832545671627 0 0 0
2696 0 2 0 4.234618064287122 19.783339552895306 21.13367005703675 0 0 0
2695 0 3 0 3.8383677378296706 18.884894074380846 20.834686731171757 0 0 0
2617 0 3 0 4.204632130893339 19.42683840534971 24.073658044563018 0 0 0
2314 0 3 0 1.95029859960331 23.116340253097736 23.2943869998508 0 0 0
2697 0 2 0 3.2445078306753787 18.71759666404582 21.60290789021224 0 0 0
2361 0 2 0 1.6783319331434592 22.738529404404986 19.682067474464322 0 0 0
2618 0 2 0 3.5545068121896164 19.83628702455639 24.668390439374058 0 0 0
3672 0 2 0 4.519420424641788 22.111112996776427 22.69764646027495 1 0 0
2857 0 3 0 4.185174385552083 22.52695736467177 24.968238357690016 1 -1 0
989 0 2 0 0.5181825312308855 19.915753207122208 19.727658009338935 0 0 0
2315 0 2 0 1.3709814540409284 23.036167258679576 24.12057144955718 0 0 0
988 0 3 0 0.5609410254778554 18.90860764835369 19.484231810916494 0 0 0
1230 0 2 0 3.755853096030349 22.85235470473409 19.005662789242592 0 0 0
3670 0 3 0 4.764832646815217 21.90419043827161 21.817714672664852 1 0 0
2011 0 3 0 0.4343436982895606 21.663717312458946 19.37618729989822 0 0 0
2316 0 2 0 2.7428848554411163 22.71157287498723 23.731402079003033 0 0 0
400 0 3 0 0.2688649699649141 22.848442504825652 25.610139978246117 0 -1 0
653 0 2 0 2.0966268819073592 20.38964180498434 26.68225626070656 0 0 0
1661 0 2 0 4.593190453165625 20.14830032143173 26.60854982937327 0 -1 0
652 0 3 0 2.8505030343046474 19.84055526284012 26.37859610966334 0 0 0
3232 0 3 0 0.09031202897832379 20.568051677783895 26.695097392906273 1 0 0
401 0 2 0 0.1816899833201236 21.95620276992939 26.10324125608638 0 -1 0
654 0 2 0 2.640137247502109 18.91565506651968 26.60026138353192 0 0 0
3649 0 1 0 2.4398806492544374 23.845620025567364 1.1532754685110935 1 0 0
3639 0 1 0 0.34357858037740235 25.099288268724912 1.0604863305308379 1 0 0
2731 0 1 0 0.3302463001055904 27.561561951120968 0.8732526687017215 1 -1 0
3650 0 1 0 3.218665575210258 25.08419597553796 1.1345183434579482 1 0 0
2751 0 1 0 4.6324334918883325 27.473875285604326 0.9847014185907119 1 -1 0
3641 0 1 0 2.4784833414019083 26.304421970050118 1.0072883967301272 1 0 0
2742 0 1 0 3.212672653677859 27.51275222365621 0.9797602976478712 1 -1 0
3659 0 1 0 4.619072483573764 25.081077796945006 1.207352185151355 1 0 0
3640 0 1 0 1.0346784790323738 26.3187131987328 0.8999509101049668 1 0 0
2626 0 3 0 3.3235402734164787 25.70093275237328 4.420662107009005 1 0 0
2628 0 2 0 2.6726151813666057 25.387589836836327 3.823953475165103 1 0 0
3638 0 1 0 1.0516030280452235 23.85422563848784 1.064491808504705 1 0 0
2627 0 2 0 3.373793185365429 25.025616213285932 5.0944653212911835 1 0 0
1146 0 2 0 3.8655927936209014 27.458510975156983 4.183551668247949 0 0 0
2884 0 3 0 2.7806407192945812 23.849298774075244 12.00126388854145 1 -1 0
3939 0 2 0 4.169139466710615 26.363464719889144 10.592851679962957 1 0 0
3938 0 2 0 3.258957739419792 25.254132472521555 11.224522393896954 1 0 0
4005 0 2 0 4.35946709137833 25.52063494331059 7.6455958605611105 1 0 0
3705 0 2 0 0.4454190282257212 23.780583313228615 8.681080718670026 1 0 0
974 0 2 0 1.7859917378928223 25.82429859416424 7.756048625435105 0 0 0
973 0 3 0 2.5462349631033137 26.358900934055757 8.068562335915841 0 0 0
975 0 2 0 2.5938896321851574 26.054637718818984 9.035101892728107 0 0 0
3937 0 3 0 3.190698630892629 26.137957128174982 10.704260179586452 1 0 0
3703 0 3 0 1.0035614889275206 23.913763155311525 7.889006519698613 1 0 0
359 0 2 0 2.1662302167121608 27.335320880147382 10.812836582697482 0 -1 0
3704 0 2 0 0.5426986900361646 23.53712825796835 7.117034854758451 1 0 0
1061 0 2 0 2.4634095371722156 23.236025725544433 7.602399120619203 0 0 0
4004 0 2 0 4.787149164366524 23.976190104471893 7.550876727059334 1 0 0
2886 0 2 0 1.8859319977464961 23.67684311330356 12.384875003016171 1 -1 0
3119 0 2 0 0.9580456383256696 26.879325463639926 12.410487359430322 1 -1 0
3925 0 3 0 1.6130379549495675 24.291574397742146 15.021272517324295 1 0 0
2499 0 2 0 1.9003325757400165 27.55667569954618 15.083187810156506 1 0 0
3926 0 2 0 2.400398325830298 23.892180635694857 15.51432841172644 1 0 0
2498 0 2 0 0.37525416369751 27.463842021578706 14.929219728166133 1 0 0
3120 0 2 0 1.184753692023971 25.56514068954559 13.397463343598732 1 -1 0
3927 0 2 0 1.1617664158954977 24.7782562772208 15.787527232005658 1 0 0
1103 0 2 0 4.1321744708094075 26.93975835486287 14.269617776622317 0 0 0
3118 0 3 0 0.5801352945606703 26.059605374458897 12.816607832271135 1 -1 0
1102 0 3 0 3.6535740012567204 26.681697970313206 15.073308561401719 0 0 0
122 0 2 0 0.5137572196273227 25.59287197626372 17.69681890611781 0 -1 0
1104 0 2 0 3.615779918806053 25.67481672607508 15.13648013181152 0 0 0
1056 0 2 0 0.7770826791934725 23.342262456081855 13.93052182588345 0 0 0
121 0 3 0 0.018785414093485997 25.398622000594642 16.85552969330466 0 -1 0
2933 0 2 0 3.9945515700727316 27.33858607475961 18.137920184783756 1 -1 0
2885 0 2 0 3.4224016039628857 23.49741552177754 12.631779073237533 1 -1 0
3100 0 3 0 0.6782148298026107 26.398007195516584 23.27258709968101 1 -1 0
3102 0 2 0 0.9868889355749801 25.477947270762936 23.327741717032897 1 -1 0
1081 0 3 0 1.248464499260289 25.847539505623836 19.15481086788894 0 0 0
1082 0 2 0 1.7879329837423248 26.654745771852877 18.945230396352596 0 0 0
1083 0 2 0 1.7922196056342221 25.056240951803982 19.329456972354826 0 0 0
1121 0 2 0 2.2954348408388667 27.179553610556265 22.83930593025032 0 0 0
2859 0 2 0 4.547729251054008 23.366054552359333 24.775302011429964 1 -1 0
3101 0 2 0 0.1290248593552349 26.613144352668222 24.0430994749461 1 -1 0
2360 0 2 0 2.0193279864359286 23.573144809052714 20.854628775189923 0 0 0
1120 0 3 0 3.2563992883386876 27.228220180199095 23.09615065627515 0 0 0
1112 0 2 0 4.480199929156934 25.749778466137485 24.055688646491134 0 0 0
1122 0 2 0 3.6512435165928383 27.785432397159028 22.37911543555467 0 0 0
2359 0 3 0 2.3644300167247887 23.466945945081665 19.950894776308914 0 0 0
3768 0 2 0 1.631249062722145 23.591046809644766 26.532727590588472 1 0 0
311 0 2 0 2.317535688000965 26.830142909101443 28.085638378207527 0 -1 0
3766 0 3 0 2.293008218022743 24.176033123646086 27.015264048263397 1 0 0
3767 0 2 0 3.1347436543423415 23.674753852950122 26.91892939931965 1 0 0
312 0 2 0 2.0464881598235714 25.862558789011445 27.027887853479427 0 -1 0
310 0 3 0 1.87828975618715 26.839003534479932 27.23054976953413 0 -1 0
1041 0 2 0 0.13589984755960924 27.038021302223036 26.404308196822615 0 0 0
2732 0 1 0 1.1032081074611362 28.773344620839232 0.7868170592250123 1 -1 0
2744 0 1 0 3.2185080965091486 29.986286611818713 0.8229371288487791 1 -1 0
3792 0 2 0 2.3594579414106795 29.032518426498854 4.439256491412468 1 0 0
2745 0 1 0 2.5202564334061512 31.236395856824583 0.8344184864279456 1 -1 0