(written by ASE)

4050 atoms
3 atom types

0.0      38.501999999999995  xlo xhi
0.0      37.049999999999997  ylo yhi
0.0                     100  zlo zhi

Masses

     1      12.010999996910238 # C
     2      1.0079999997406976 # H
     3      15.998999995884349 # O

Atoms # full

     1   0   1   0.0      12.292999999999999                  11.448     -0.1014333333333326
     2   0   1   0.0                   0.218     0.32900000000000001   -0.088433333333332698
     3   0   1   0.0                  12.362                   1.579    0.056566666666666876
     4   0   1   0.0                   0.249      2.7869999999999999      0.1095666666666677
     5   0   1   0.0      12.337999999999999      4.0510000000000002   -0.019433333333333636
     6   0   1   0.0                    0.22      5.2869999999999999   0.0065666666666661655
     7   0   1   0.0      12.324999999999999      6.5039999999999996   0.0095666666666662792
     8   0   1   0.0     0.17899999999999999                   7.766   -0.025433333333333863
     9   0   1   0.0      12.298999999999999      9.0139999999999993   -0.037433333333332541
    10   0   1   0.0     0.19700000000000001                  10.198    -0.25443333333333307
    11   0   1   0.0      1.6000000000000001     0.30299999999999999    -0.18643333333333345
    12   0   1   0.0      2.3159999999999998                   1.577    -0.15843333333333298
    13   0   1   0.0                   1.643      2.8090000000000002    0.029566666666667629
    14   0   1   0.0      2.3420000000000001                   4.032    0.019566666666667842
    15   0   1   0.0      1.6339999999999999      5.3220000000000001    0.014566666666667061
    16   0   1   0.0      2.3980000000000001                   6.508    -0.20243333333333347
    17   0   1   0.0                   1.605      7.7549999999999999    -0.10543333333333216
    18   0   1   0.0      2.3199999999999998      9.0199999999999996    -0.28543333333333365
    19   0   1   0.0                   1.605      10.252000000000001    -0.20343333333333291
    20   0   1   0.0      2.3210000000000002      11.467000000000001    -0.21843333333333348
    21   0   1   0.0      3.7679999999999998                  11.468     -0.0284333333333322
    22   0   1   0.0      4.4820000000000002                   0.374   -0.088433333333332698
    23   0   1   0.0      3.7690000000000001                   1.637    -0.12043333333333273
    24   0   1   0.0      4.4649999999999999                   2.802    0.068566666666667331
    25   0   1   0.0                    3.77      4.0499999999999998   -0.020433333333333081
    26   0   1   0.0      4.5010000000000003      5.2610000000000001   -0.042433333333333323
    27   0   1   0.0      3.8380000000000001                   6.524    -0.16943333333333221
    28   0   1   0.0      4.4660000000000002      7.7510000000000003    -0.28543333333333365
    29   0   1   0.0      3.7469999999999999      9.0009999999999994     -0.2524333333333324
    30   0   1   0.0      4.4630000000000001                  10.205    0.038566666666666194
    31   0   1   0.0      5.8959999999999999     0.34200000000000003    0.045566666666667643
    32   0   1   0.0                   6.609                   1.593     0.16056666666666786
    33   0   1   0.0      5.9169999999999998      2.8010000000000002    0.085566666666666791
    34   0   1   0.0      6.5999999999999996      4.0220000000000002      0.1745666666666672
    35   0   1   0.0                   5.875      5.2249999999999996    0.063566666666666549
    36   0   1   0.0                   6.577      6.4800000000000004   -0.080433333333333579
    37   0   1   0.0      5.8810000000000002      7.6989999999999998    -0.19243333333333368
    38   0   1   0.0      6.5949999999999998      8.9510000000000005   -0.037433333333332541
    39   0   1   0.0      5.8869999999999996                  10.208     0.02256666666666618
    40   0   1   0.0      6.5570000000000004      11.430999999999999    0.067566666666667885
    41   0   1   0.0      7.9930000000000003                  11.472     0.12456666666666649
    42   0   1   0.0      8.7650000000000006     0.28999999999999998     0.16556666666666686
    43   0   1   0.0      8.0559999999999992      1.5309999999999999     0.18656666666666766
    44   0   1   0.0      8.7720000000000002      2.7799999999999998    0.054566666666666208
    45   0   1   0.0      8.0429999999999993      4.0430000000000001     0.10456666666666692
    46   0   1   0.0      8.7409999999999997      5.2640000000000002    0.078566666666667118
    47   0   1   0.0                   8.016      6.5129999999999999    0.077566666666667672
    48   0   1   0.0      8.7200000000000006      7.7519999999999998    0.090566666666667572
    49   0   1   0.0      7.9909999999999997      8.9469999999999992     0.05556666666666743
    50   0   1   0.0      8.6929999999999996      10.207000000000001     0.14156666666666773
    51   0   1   0.0                  10.214     0.34999999999999998     0.19856666666666634
    52   0   1   0.0                  10.919      1.5680000000000001     0.28956666666666742
    53   0   1   0.0                   10.19      2.7519999999999998     0.11956666666666749
    54   0   1   0.0                  10.888      4.0469999999999997    0.045566666666667643
    55   0   1   0.0                  10.137      5.2709999999999999    0.097566666666667246
    56   0   1   0.0                  10.891      6.4900000000000002  -0.0094333333333338487
    57   0   1   0.0      10.164999999999999      7.7199999999999998    0.083566666666666123
    58   0   1   0.0                  10.843      8.9689999999999994    0.056566666666666876
    59   0   1   0.0      10.114000000000001                  10.222     0.11156666666666659
    60   0   1   0.0                  10.882      11.446999999999999     0.15856666666666719
    61   0   3   0.0      10.776999999999999      5.7030000000000003      20.813566666666667
    62   0   2   0.0      11.444000000000001      6.3979999999999997      21.074566666666666
    63   0   2   0.0      10.037000000000001      6.1970000000000001      20.479566666666667
    64   0   3   0.0      6.1029999999999998      5.6779999999999999      25.471566666666668
    65   0   2   0.0      6.5149999999999997      5.8280000000000003       24.58056666666667
    66   0   2   0.0      6.1929999999999996      4.7249999999999996      25.611566666666668
    67   0   3   0.0      6.6440000000000001      10.103999999999999       22.90956666666667
    68   0   2   0.0      5.7709999999999999                  10.199      23.321566666666669
    69   0   2   0.0                   6.907                  11.023      22.658566666666665
    70   0   3   0.0                  11.257      2.1379999999999999      22.372566666666668
    71   0   2   0.0                  10.689      2.6709999999999998      22.947566666666667
    72   0   2   0.0      11.561999999999999      1.3979999999999999      22.990566666666666
    73   0   3   0.0      8.5609999999999999                  11.244      3.7155666666666676
    74   0   2   0.0      9.1590000000000007                  11.888      3.3135666666666665
    75   0   2   0.0      9.0340000000000007                  10.455      4.0235666666666674
    76   0   3   0.0      9.2940000000000005      10.622999999999999      16.268566666666668
    77   0   2   0.0      8.3070000000000004                  10.564      16.137566666666668
    78   0   2   0.0      9.5570000000000004      10.641999999999999      15.302566666666667
    79   0   3   0.0                   2.476      2.2919999999999998      16.091566666666665
    80   0   2   0.0                   1.921      1.8220000000000001      15.384566666666668
    81   0   2   0.0      1.8009999999999999      2.6349999999999998      16.699566666666666
    82   0   3   0.0      3.7719999999999998      6.6609999999999996      26.375566666666664
    83   0   2   0.0      4.5709999999999997      6.4100000000000001       25.83956666666667
    84   0   2   0.0      3.9590000000000001      6.8789999999999996      27.315566666666669
    85   0   3   0.0      8.3019999999999996      5.3620000000000001      16.787566666666667
    86   0   2   0.0      9.0570000000000004      5.9260000000000002      16.650566666666666
    87   0   2   0.0      7.7990000000000004                   5.702      16.038566666666668
    88   0   3   0.0      1.4319999999999999      4.2750000000000004      17.909566666666667
    89   0   2   0.0                   1.915      4.1130000000000004      18.743566666666666
    90   0   2   0.0     0.45900000000000002      4.2400000000000002      18.124566666666666
    91   0   3   0.0      4.2450000000000001    -0.35299999999999998      3.0645666666666678
    92   0   2   0.0      5.0869999999999997                   0.159      2.9865666666666666
    93   0   2   0.0      3.6070000000000002                   0.373      2.9795666666666669
    94   0   3   0.0                   8.218      12.608000000000001      22.416566666666668
    95   0   2   0.0      9.0760000000000005      12.343999999999999      22.826566666666665
    96   0   2   0.0      8.3290000000000006      12.391999999999999      21.459566666666667
    97   0   3   0.0    0.074999999999999997                   7.282      21.611566666666668
    98   0   2   0.0     0.77900000000000003      6.6059999999999999      21.544566666666668
    99   0   2   0.0     0.32700000000000001      8.0239999999999991      21.041566666666668
   100   0   3   0.0      5.9089999999999998      10.279999999999999      18.545566666666666
   101   0   2   0.0      5.2030000000000003                  10.911      18.661566666666666
   102   0   2   0.0      6.6710000000000003      10.792999999999999      19.020566666666667
   103   0   3   0.0      4.1189999999999998      6.5949999999999998      13.020566666666667
   104   0   2   0.0      4.3869999999999996      6.1829999999999998      12.174566666666667
   105   0   2   0.0                   3.274      6.1130000000000004      13.220566666666667
   106   0   3   0.0      8.2230000000000008      7.0830000000000002      19.212566666666667
   107   0   2   0.0      7.3920000000000003      7.4699999999999998      19.651566666666668
   108   0   2   0.0      8.0150000000000006      6.7770000000000001      18.323566666666668
   109   0   3   0.0                    1.01      7.9329999999999998      24.584566666666667
   110   0   2   0.0                   1.093      7.5830000000000002      23.686566666666664
   111   0   2   0.0      1.6020000000000001      7.3730000000000002      25.140566666666665
   112   0   3   0.0                   1.927      4.5549999999999997      13.347566666666665
   113   0   2   0.0                    1.25      4.1289999999999996      12.783566666666665
   114   0   2   0.0      2.3370000000000002                   3.879      13.899566666666669
   115   0   3   0.0      5.8339999999999996      8.8520000000000003      3.2255666666666674
   116   0   2   0.0      5.7569999999999997      9.3569999999999993      2.3885666666666676
   117   0   2   0.0      6.8099999999999996      8.7729999999999997      3.4885666666666673
   118   0   3   0.0      11.343999999999999      3.4279999999999999      25.680566666666664
   119   0   2   0.0                  11.038      4.0890000000000004       25.03156666666667
   120   0   2   0.0                  12.215      3.0449999999999999       25.29056666666667
   121   0   3   0.0      2.1960000000000002                   0.094      5.2365666666666666
   122   0   2   0.0                   2.496    -0.38800000000000001      4.4765666666666668
   123   0   2   0.0      2.7669999999999999                   0.749      5.6995666666666676
   124   0   3   0.0      4.7960000000000003                  10.398      5.6415666666666677
   125   0   2   0.0      4.4790000000000001      11.095000000000001      5.0965666666666678
   126   0   2   0.0      5.2859999999999996      9.7769999999999992      5.0285666666666664
   127   0   3   0.0                  10.824      3.4660000000000002      9.5725666666666669
   128   0   2   0.0                  11.346                   2.734       9.075566666666667
   129   0   2   0.0      9.8819999999999997      3.0710000000000002      9.7525666666666666
   130   0   3   0.0      8.6080000000000005                   3.085      3.1965666666666674
   131   0   2   0.0      8.9440000000000008      2.9510000000000001      4.0935666666666677
   132   0   2   0.0      9.1449999999999996      2.4809999999999999      2.6225666666666676
   133   0   3   0.0      4.8120000000000003                   1.673      20.999566666666666
   134   0   2   0.0      4.7140000000000004      2.5339999999999998      20.532566666666668
   135   0   2   0.0      4.2699999999999996      1.6240000000000001      21.846566666666668
   136   0   3   0.0                   0.999      1.0629999999999999      18.699566666666666
   137   0   2   0.0      1.5449999999999999     0.54400000000000004      19.334566666666667
   138   0   2   0.0                   0.217      1.2470000000000001      19.196566666666666
   139   0   3   0.0      7.2510000000000003                   2.726      22.588566666666669
   140   0   2   0.0      6.3899999999999997                   2.581      22.081566666666667
   141   0   2   0.0      7.7110000000000003                   1.899      22.511566666666667
   142   0   3   0.0      2.4209999999999998      5.5149999999999997      22.531566666666667
   143   0   2   0.0      3.3100000000000001      5.7530000000000001      22.195566666666668
   144   0   2   0.0      2.5640000000000001      5.4480000000000004      23.549566666666664
   145   0   3   0.0      2.9990000000000001      2.4239999999999999      3.1605666666666679
   146   0   2   0.0      3.9359999999999999                   2.681      2.9175666666666675
   147   0   2   0.0      2.2610000000000001      2.9350000000000001      2.7245666666666661
   148   0   3   0.0      12.619999999999999                  11.512      17.016566666666666
   149   0   2   0.0      12.287000000000001                  10.708      17.522566666666666
   150   0   2   0.0      13.308999999999999                  11.913      17.548566666666666
   151   0   3   0.0      3.8100000000000001      6.8109999999999999      5.5965666666666678
   152   0   2   0.0      4.2430000000000003                       7      4.7295666666666669
   153   0   2   0.0      3.4620000000000002      5.8970000000000002      5.5835666666666661
   154   0   3   0.0    0.082000000000000003      11.257999999999999      6.6655666666666669
   155   0   2   0.0     0.80500000000000005                  11.789       6.216566666666667
   156   0   2   0.0     0.48299999999999998      10.798999999999999      7.4665666666666652
   157   0   3   0.0                  11.744      4.4390000000000001      18.282566666666668
   158   0   2   0.0      11.170999999999999                   3.944      17.620566666666669
   159   0   2   0.0                  11.282      4.6289999999999996      19.094566666666665
   160   0   3   0.0     0.75900000000000001                   0.875      14.396566666666669
   161   0   2   0.0    -0.18099999999999999      1.1879999999999999      14.647566666666666
   162   0   2   0.0     0.90400000000000003     0.13200000000000001      15.031566666666667
   163   0   3   0.0      9.8379999999999992                   1.089      12.286566666666666
   164   0   2   0.0      9.2769999999999992                   1.615      11.667566666666666
   165   0   2   0.0      10.242000000000001      1.6699999999999999      12.969566666666665
   166   0   3   0.0                   5.694      7.2720000000000002      15.892566666666667
   167   0   2   0.0      5.9379999999999997      8.1920000000000002      15.665566666666667
   168   0   2   0.0      5.1630000000000003      7.0010000000000003      15.127566666666667
   169   0   3   0.0      7.1219999999999999                   2.323      14.389566666666667
   170   0   2   0.0                   6.327                   2.923      14.482566666666667
   171   0   2   0.0      7.8230000000000004      2.9489999999999998      14.197566666666667
   172   0   3   0.0                  11.571                   7.819      3.0125666666666664
   173   0   2   0.0                  12.065                   7.298      3.7425666666666668
   174   0   2   0.0      10.787000000000001      7.1890000000000001      2.7985666666666678
   175   0   3   0.0      9.4559999999999995      2.6429999999999998      5.7355666666666671
   176   0   2   0.0      8.9550000000000001                    2.04      6.3185666666666673
   177   0   2   0.0      9.3529999999999998      3.5230000000000001      6.2495666666666665
   178   0   3   0.0                   1.782      1.6240000000000001      11.974566666666668
   179   0   2   0.0                   1.738     0.93500000000000005      11.244566666666667
   180   0   2   0.0      1.3109999999999999                   1.089      12.714566666666666
   181   0   3   0.0                   1.889      10.404999999999999      25.888566666666669
   182   0   2   0.0                    1.25                  11.048      25.588566666666665
   183   0   2   0.0                   1.478      9.5869999999999997      25.544566666666668
   184   0   3   0.0                  11.237      2.3149999999999999      14.256566666666668
   185   0   2   0.0                  11.638      3.1429999999999998      13.856566666666666
   186   0   2   0.0                  10.811      2.6800000000000002      15.060566666666666
   187   0   3   0.0      3.4140000000000001      5.7389999999999999      8.4365666666666677
   188   0   2   0.0      2.6389999999999998      5.5179999999999998      9.0675666666666679
   189   0   2   0.0      3.8380000000000001      6.6150000000000002      8.5585666666666675
   190   0   3   0.0                   6.383                  11.221      13.620566666666669
   191   0   2   0.0      7.2889999999999997                  10.911      13.340566666666668
   192   0   2   0.0      6.3440000000000003                  12.182      13.676566666666666
   193   0   3   0.0                  10.727      5.1589999999999998      3.0485666666666678
   194   0   2   0.0      10.840999999999999      5.1550000000000002      3.9945666666666675
   195   0   2   0.0      9.8420000000000005                   4.883      2.8345666666666673
   196   0   3   0.0      1.5680000000000001      5.9409999999999998      2.9795666666666669
   197   0   2   0.0      1.4199999999999999      5.6200000000000001      3.8945666666666678
   198   0   2   0.0     0.84399999999999997      5.7130000000000001      2.4415666666666667
   199   0   3   0.0                   11.84      1.3089999999999999      7.7425666666666686
   200   0   2   0.0      11.175000000000001                   1.605      7.1195666666666675
   201   0   2   0.0                  12.157                   0.378      7.5105666666666657
   202   0   3   0.0      3.5129999999999999                  11.763      19.108566666666668
   203   0   2   0.0                   3.609                  11.933      18.118566666666666
   204   0   2   0.0      3.9100000000000001      12.550000000000001      19.575566666666667
   205   0   3   0.0                   3.226                   5.532      16.386566666666667
   206   0   2   0.0      2.4319999999999999      5.0970000000000004      16.891566666666666
   207   0   2   0.0      3.7269999999999999      5.9029999999999996      17.097566666666665
   208   0   3   0.0      9.8469999999999995      4.9539999999999997      7.3265666666666682
   209   0   2   0.0                  10.061      4.6230000000000002      8.2205666666666666
   210   0   2   0.0      9.0679999999999996      5.5810000000000004      7.2975666666666683
   211   0   3   0.0      8.9870000000000001                   9.048      23.459566666666667
   212   0   2   0.0      9.3179999999999996      9.0570000000000004      22.515566666666668
   213   0   2   0.0      8.0470000000000006      9.4420000000000002      23.509566666666665
   214   0   3   0.0                  11.096      9.9120000000000008      4.9255666666666666
   215   0   2   0.0      11.869999999999999                  10.353      5.3535666666666675
   216   0   2   0.0                  11.417      9.3000000000000007      4.2735666666666674
   217   0   3   0.0      9.8789999999999996      7.9989999999999997      16.615566666666666
   218   0   2   0.0      10.826000000000001      7.8940000000000001      16.929566666666666
   219   0   2   0.0      9.6500000000000004      8.9440000000000008      16.752566666666667
   220   0   3   0.0                   1.157                  12.231      21.504566666666665
   221   0   2   0.0                   1.708      13.048999999999999      21.316566666666667
   222   0   2   0.0      1.7849999999999999                  11.458      21.389566666666667
   223   0   3   0.0      2.4769999999999999      10.423999999999999      15.061566666666668
   224   0   2   0.0      2.2999999999999998      9.4529999999999994      15.210566666666669
   225   0   2   0.0      3.1150000000000002                  10.414      14.317566666666668
   226   0   3   0.0      5.8109999999999999      8.6010000000000009      20.695566666666668
   227   0   2   0.0      5.6139999999999999      9.2479999999999993      19.969566666666665
   228   0   2   0.0      6.3029999999999999      9.1210000000000004      21.450566666666667
   229   0   3   0.0                  11.885      5.0270000000000001      5.5135666666666676
   230   0   2   0.0      12.452999999999999      5.7850000000000001      5.3245666666666676
   231   0   2   0.0      11.157999999999999      5.2409999999999997      6.1305666666666667
   232   0   3   0.0                  10.177                   3.161      16.564566666666668
   233   0   2   0.0      9.3149999999999995                   3.484      16.326566666666668
   234   0   2   0.0      10.058999999999999                   2.298      17.023566666666667
   235   0   3   0.0                   4.391                   2.157      12.145566666666667
   236   0   2   0.0      4.7110000000000003      2.6579999999999999      12.930566666666667
   237   0   2   0.0                   3.363      2.0169999999999999      12.373566666666665
   238   0   3   0.0                    0.44      12.662000000000001      2.8655666666666662
   239   0   2   0.0                    0.63      11.696999999999999      3.0285666666666664
   240   0   2   0.0     0.84699999999999998                  13.125      3.6065666666666676
   241   0   3   0.0      9.0980000000000008                  10.574      13.048566666666666
   242   0   2   0.0      9.4260000000000002                   11.44      12.701566666666668
   243   0   2   0.0      9.0440000000000005      9.9169999999999998      12.315566666666665
   244   0   3   0.0      7.9219999999999997                  11.029      10.292566666666666
   245   0   2   0.0      7.2510000000000003                  11.638      10.581566666666667
   246   0   2   0.0      8.8369999999999997                   11.43      10.369566666666667
   247   0   3   0.0      12.239000000000001                   10.02      13.674566666666667
   248   0   2   0.0      11.409000000000001                   10.52      13.781566666666667
   249   0   2   0.0                  12.779                  10.273      14.458566666666666
   250   0   3   0.0                    7.71      6.6420000000000003      7.0875666666666675
   251   0   2   0.0                   7.617      7.1360000000000001      7.9485666666666681
   252   0   2   0.0      8.0410000000000004      7.3129999999999997      6.4645666666666664
   253   0   3   0.0      3.8159999999999998                  10.772      12.726566666666667
   254   0   2   0.0      3.5739999999999998      11.531000000000001      12.134566666666668
   255   0   2   0.0      4.8109999999999999      10.590999999999999      12.667566666666666
   256   0   3   0.0      4.4359999999999999      4.3289999999999997      19.493566666666666
   257   0   2   0.0      4.7530000000000001      5.0579999999999998      20.039566666666666
   258   0   2   0.0      5.2210000000000001      3.9569999999999999      18.974566666666668
   259   0   3   0.0      4.6120000000000001      3.4820000000000002      14.796566666666667
   260   0   2   0.0      4.4790000000000001                   4.391      15.113566666666667
   261   0   2   0.0                   3.964                   3.032      15.352566666666668
   262   0   3   0.0                   7.702      5.3630000000000004      22.787566666666667
   263   0   2   0.0      7.4809999999999999                   4.383      22.705566666666666
   264   0   2   0.0      8.5310000000000006                   5.399      23.379566666666669
   265   0   3   0.0      6.2270000000000003      4.1849999999999996      7.3725666666666676
   266   0   2   0.0      6.3940000000000001      5.0730000000000004      6.9795666666666669
   267   0   2   0.0      5.2160000000000002      4.2569999999999997      7.6565666666666665
   268   0   3   0.0      1.3740000000000001                   3.024      21.806566666666669
   269   0   2   0.0     0.41299999999999998      2.9910000000000001      21.681566666666669
   270   0   2   0.0      1.6240000000000001      3.9340000000000002      21.906566666666667
   271   0   3   0.0                  10.448                   8.891      7.7575666666666656
   272   0   2   0.0      9.5050000000000008      9.2919999999999998      7.6615666666666655
   273   0   2   0.0      10.720000000000001      9.0990000000000002      6.8385666666666687
   274   0   3   0.0                  11.705      10.646000000000001      19.853566666666666
   275   0   2   0.0      11.409000000000001                  11.564      20.095566666666667
   276   0   2   0.0                  12.664                  10.587      19.945566666666668
   277   0   3   0.0      10.430999999999999     0.63300000000000001      17.401566666666668
   278   0   2   0.0                  11.381     0.32500000000000001      17.218566666666668
   279   0   2   0.0      9.9399999999999995   -0.086999999999999994      16.929566666666666
   280   0   3   0.0      4.4260000000000002      8.2509999999999994       9.237566666666666
   281   0   2   0.0      3.7970000000000002      8.3810000000000002      9.9795666666666669
   282   0   2   0.0                   3.863      8.7100000000000009      8.5555666666666674
   283   0   3   0.0                  10.173      11.766999999999999      24.135566666666669
   284   0   2   0.0      9.8230000000000004                  10.868      24.057566666666666
   285   0   2   0.0      11.148999999999999                  11.686      24.119566666666664
   286   0   3   0.0      9.3610000000000007                   3.452      19.466566666666665
   287   0   2   0.0      8.4589999999999996      3.4260000000000002      19.189566666666668
   288   0   2   0.0      9.2870000000000008      4.0410000000000004      20.236566666666668
   289   0   3   0.0                   4.859     0.32100000000000001      7.7115666666666662
   290   0   2   0.0      5.0739999999999998                   1.034      7.0685666666666656
   291   0   2   0.0      5.2939999999999996                   -0.44      7.3355666666666686
   292   0   3   0.0                   3.036                  10.266      21.298566666666666
   293   0   2   0.0      3.8540000000000001                  10.528      20.857566666666667
   294   0   2   0.0      3.3300000000000001      10.071999999999999      22.236566666666668
   295   0   3   0.0                   1.165      10.141999999999999       8.766566666666666
   296   0   2   0.0     0.39800000000000002      9.6609999999999996      9.2135666666666687
   297   0   2   0.0                   1.772      9.4740000000000002      8.3715666666666664
   298   0   3   0.0      3.9249999999999998     0.16600000000000001      16.531566666666667
   299   0   2   0.0      3.3090000000000002     0.93600000000000005      16.431566666666669
   300   0   2   0.0      3.5539999999999998    -0.49299999999999999      15.924566666666667
   301   0   3   0.0      1.0589999999999999      9.1690000000000005      19.646566666666669
   302   0   2   0.0     0.79900000000000004      8.9510000000000005      18.752566666666667
   303   0   2   0.0      2.0379999999999998      9.3369999999999997      19.685566666666666
   304   0   3   0.0      2.2589999999999999     0.10100000000000001      9.5315666666666665
   305   0   2   0.0      2.8650000000000002     0.48299999999999998      8.9065666666666665
   306   0   2   0.0      1.7609999999999999    -0.66700000000000004      9.1605666666666679
   307   0   3   0.0      8.4489999999999998      7.8230000000000004      4.5235666666666674
   308   0   2   0.0      9.3689999999999998      8.0129999999999999      4.4355666666666664
   309   0   2   0.0      8.2080000000000002      7.0039999999999996      4.1935666666666673
   310   0   3   0.0                   1.393                   2.363      24.429566666666666
   311   0   2   0.0                    1.47      2.5880000000000001      23.523566666666667
   312   0   2   0.0                   1.716      3.0619999999999998       24.97956666666667
   313   0   3   0.0      8.4550000000000001      4.6980000000000004      13.539566666666666
   314   0   2   0.0                   9.032      5.4459999999999997      13.850566666666666
   315   0   2   0.0      8.3350000000000009      4.7770000000000001      12.571566666666666
   316   0   3   0.0      1.4810000000000001      9.8339999999999996      3.2355666666666671
   317   0   2   0.0      1.0129999999999999      9.4649999999999999      4.0065666666666662
   318   0   2   0.0      1.3979999999999999      9.2970000000000006      2.4545666666666666
   319   0   3   0.0      6.6909999999999998      3.1320000000000001      18.007566666666666