LAMMPS (4 Feb 2025)
OMP_NUM_THREADS environment is not set. Defaulting to 1 thread. (src/comm.cpp:99)
  using 1 OpenMP thread(s) per MPI task
# LAMMPS script for running NVT simulation

units       metal                   # Energies in eV, distances in A
dimension   3
boundary    p p p
atom_style  full

read_data   ../start.lammps-data
Reading data file ...
  orthogonal box = (0 0 0) to (154.008 148.19427 151.07317)
  8 by 4 by 8 MPI processor grid
  reading atoms ...
  11640 atoms
  scanning bonds ...
  2 = max bonds/atom
  reading velocities ...
  11640 velocities
  scanning angles ...
  1 = max angles/atom
  orthogonal box = (0 0 0) to (154.008 148.19427 151.07317)
  8 by 4 by 8 MPI processor grid
  reading bonds ...
  2000 bonds
  reading angles ...
  1000 angles
Finding 1-2 1-3 1-4 neighbors ...
  special bond factors lj:    0        0        0       
  special bond factors coul:  0        0        0       
     2 = max # of 1-2 neighbors
     1 = max # of 1-3 neighbors
     1 = max # of 1-4 neighbors
     2 = max # of special neighbors
  special bonds CPU = 2.242 seconds
  read_data CPU = 2.389 seconds

bond_style   zero                    # SPC/E rigid model
bond_coeff   1 1.0                   # SPC/E rigid model
angle_style  zero                    # SPC/E rigid model
angle_coeff  1 109.47                # SPC/E rigid model
pair_style   lj/cut/coul/long 9.0    # Cutoff radius of 0.9 nm = 9 A
kspace_style pppm 1.0e-5             # Particle-particle particle-mesh Ewald summation
pair_coeff   1 1 0.0      1.0        # Ignore C-C
pair_coeff   1 2 0.0      1.0        # Ignore C-H
pair_coeff   1 3 0.004551 3.367      # LJ for C-O (0.4391 kJ/mol = 0.004551 eV)
pair_coeff   2 2 0.0      1.0        # SPC/E H-H
pair_coeff   2 3 0.0      1.0        # SPC/E H-O
pair_coeff   3 3 0.006735 3.166      # SPC/E O-O (0.1553 kcal/mol = 0.006735 eV)

set type 2 charge 0.4238            # SPC/E H
Setting atom values ...
  2000 settings made for charge
set type 3 charge -0.8476           # SPC/E O
Setting atom values ...
  1000 settings made for charge

variable t equal step

group graphene type 1
8640 atoms in group graphene
group H2O type 2 3
3000 atoms in group H2O

######### Energy minimization #########

thermo 10
fix graphene_fix graphene setforce 0.0 0.0 0.0
fix rigid_bonds H2O shake 0.0001 10 10000 b 1 a 1
Finding SHAKE clusters ...
       0 = # of size 2 clusters
       0 = # of size 3 clusters
       0 = # of size 4 clusters
    1000 = # of frozen angles
  find clusters CPU = 0.060 seconds
minimize 0.0 0.0 1000 1000000
PPPM initialization ...
  using 12-bit tables for long-range coulomb (src/kspace.cpp:342)
  G vector (1/distance) = 0.27466065
  grid = 72 72 72
  stencil order = 5
  estimated absolute RMS force accuracy = 0.00016054877
  estimated relative force accuracy = 1.1149495e-05
  using double precision KISS FFT
  3d grid and FFT values/proc = 4508 1800
Generated 0 of 3 mixed pair_coeff terms from geometric mixing rule
WARNING: Using fix shake with minimization.
  Substituting constraints with harmonic restraint forces using kbond=86.17 (src/RIGID/fix_shake.cpp:386)
Neighbor list info ...
  update: every = 1 steps, delay = 0 steps, check = yes
  max neighbors/atom: 2000, page size: 100000
  master list distance cutoff = 11
  ghost atom cutoff = 11
  binsize = 5.5, bins = 29 27 28
  1 neighbor lists, perpetual/occasional/extra = 1 0 0
  (1) pair lj/cut/coul/long, perpetual
      attributes: half, newton on
      pair build: half/bin/newton
      stencil: half/bin/3d
      bin: standard
Per MPI rank memory allocation (min/avg/max) = 9.172 | 9.243 | 10.8 Mbytes
   Step          Temp          E_pair         E_mol          TotEng         Press     
         0   85.521157     -429.07228      0             -311.4637       194.09109    
        10   85.521157     -481.43472      0             -357.83936      85.80658     
        20   85.521157     -517.12359      0             -386.4499       70.640479    
        30   85.521157     -527.37807      0             -399.36149      72.184207    
        40   85.521157     -533.72345      0             -406.84635      103.81111    
        50   85.521157     -544.28676      0             -414.04508      83.008625    
        53   85.521157     -544.23142      0              3573977.7     -589941.46    
SHAKE stats (type/ave/delta/count) on step 53
Bond:   1   1.82841   36.3213         1996
Angle:  1   103.578   168.18           996
Loop time of 1.28814 on 256 procs for 53 steps with 11640 atoms

99.3% CPU use with 256 MPI tasks x 1 OpenMP threads

Minimization stats:
  Stopping criterion = linesearch alpha is zero
  Energy initial, next-to-last, final = 
     -429.072283975757   -534.43535873036   3573860.06036176
  Force two-norm initial, final = 55.663706 60896.054
  Force max component initial, final = 3.2918466 11677.418
  Final line search alpha, max atom move = 1.0265874e-10 1.198789e-06
  Iterations, force evaluations = 53 131

MPI task timing breakdown:
Section |  min time  |  avg time  |  max time  |%varavg| %total
---------------------------------------------------------------
Pair    | 1.7625e-05 | 0.015975   | 0.95019    |  61.6 |  1.24
Bond    | 1.9229e-05 | 4.1947e-05 | 0.00014104 |   0.0 |  0.00
Kspace  | 0.28701    | 1.2371     | 1.2563     |   7.2 | 96.04
Neigh   | 0.0062964  | 0.0065975  | 0.0067067  |   0.1 |  0.51
Comm    | 0.0001416  | 0.0039561  | 0.0273     |   9.7 |  0.31
Output  | 0.00061104 | 0.00062323 | 0.00066604 |   0.0 |  0.05
Modify  | 0.0002104  | 0.001237   | 0.0050925  |   1.2 |  0.10
Other   |            | 0.02257    |            |       |  1.75

Nlocal:        45.4688 ave        1415 max           0 min
Histogram: 224 23 4 2 0 0 2 0 0 1
Nghost:        274.965 ave        2787 max           0 min
Histogram: 186 3 23 26 9 5 0 3 0 1
Neighs:        5072.62 ave      303658 max           0 min
Histogram: 249 4 0 0 1 1 0 0 0 1

Total # of neighbors = 1298591
Ave neighs/atom = 111.5628
Ave special neighs/atom = 0.51546392
Neighbor list builds = 1
Dangerous builds = 0
unfix graphene_fix
reset_timestep 0

######### Soft run to prevent explosion #########

thermo 150
timestep 0.00001
fix NVT1 H2O nvt temp 300 300 $(20.0*dt)
fix NVT1 H2O nvt temp 300 300 0.00020000000000000000958
run 1500
PPPM initialization ...
  using 12-bit tables for long-range coulomb (src/kspace.cpp:342)
  G vector (1/distance) = 0.27466065
  grid = 72 72 72
  stencil order = 5
  estimated absolute RMS force accuracy = 0.00016054877
  estimated relative force accuracy = 1.1149495e-05
  using double precision KISS FFT
  3d grid and FFT values/proc = 4508 1800
Generated 0 of 3 mixed pair_coeff terms from geometric mixing rule
SHAKE stats (type/ave/delta/count) on step 0
Bond:   1   1.00684   0.0171896       2000
Angle:  1   108.14    3.32723         1000
Per MPI rank memory allocation (min/avg/max) = 8.047 | 8.118 | 9.677 Mbytes
   Step          Temp          E_pair         E_mol          TotEng         Press     
         0   85.521157     -544.23142      0             -426.62284      881.55572    
       150   56.220027     -522.54482      0             -445.23111     -49.486903    
       300   55.274181     -519.21643      0             -443.20345     -46.692431    
       450   54.337495     -514.08939      0             -439.36454     -42.171599    
       600   54.200795     -507.67586      0             -433.139       -36.112258    
       750   56.112284     -500.61867      0             -423.45313     -28.643776    
       900   56.147125     -493.56105      0             -416.34759     -21.316012    
      1050   56.382449     -487.11723      0             -409.58016     -14.103715    
      1200   56.706322     -481.80361      0             -403.82115     -7.6057405    
      1350   57.878722     -477.85972      0             -398.26498     -1.8158665    
      1500   57.743959     -475.32322      0             -395.9138       2.4013152    
Loop time of 11.2929 on 256 procs for 1500 steps with 11640 atoms

Performance: 0.115 ns/day, 209.127 hours/ns, 132.827 timesteps/s, 1.546 Matom-step/s
99.9% CPU use with 256 MPI tasks x 1 OpenMP threads

MPI task timing breakdown:
Section |  min time  |  avg time  |  max time  |%varavg| %total
---------------------------------------------------------------
Pair    | 0.0001297  | 0.11873    | 7.4841     | 176.4 |  1.05
Bond    | 0.00011991 | 0.00025573 | 0.00064767 |   0.0 |  0.00
Kspace  | 3.2173     | 10.253     | 10.411     |  18.1 | 90.79
Neigh   | 0          | 0          | 0          |   0.0 |  0.00
Comm    | 0.00043021 | 0.089599   | 0.76315    |  56.0 |  0.79
Output  | 0.0016202  | 0.0016683  | 0.0017817  |   0.1 |  0.01
Modify  | 0.2703     | 0.79528    | 0.91208    |  18.1 |  7.04
Other   |            | 0.03418    |            |       |  0.30

Nlocal:        45.4688 ave        1414 max           0 min
Histogram: 224 23 4 2 0 0 2 0 0 1
Nghost:        274.941 ave        2786 max           0 min
Histogram: 186 3 23 26 9 5 0 3 0 1
Neighs:        5069.85 ave      303138 max           0 min
Histogram: 249 4 0 0 1 1 0 0 0 1

Total # of neighbors = 1297881
Ave neighs/atom = 111.5018
Ave special neighs/atom = 0.51546392
Neighbor list builds = 0
Dangerous builds = 0
unfix NVT1
reset_timestep 0

######### A little bit faster #########

thermo 150
timestep 0.00002
fix NVT1 H2O nvt temp 300 300 $(25.0*dt)
fix NVT1 H2O nvt temp 300 300 0.00050000000000000001041
run 1500
PPPM initialization ...
  using 12-bit tables for long-range coulomb (src/kspace.cpp:342)
  G vector (1/distance) = 0.27466065
  grid = 72 72 72
  stencil order = 5
  estimated absolute RMS force accuracy = 0.00016054877
  estimated relative force accuracy = 1.1149495e-05
  using double precision KISS FFT
  3d grid and FFT values/proc = 4508 1800
Generated 0 of 3 mixed pair_coeff terms from geometric mixing rule
SHAKE stats (type/ave/delta/count) on step 0
Bond:   1   1         1.08467e-10     2000
Angle:  1   109.47    1.05916e-08     1000
Per MPI rank memory allocation (min/avg/max) = 8.047 | 8.118 | 9.677 Mbytes
   Step          Temp          E_pair         E_mol          TotEng         Press     
         0   57.743959     -475.32322      0             -395.9138       2.4027642    
       150   55.286612     -473.65767      0             -397.6276       7.0070308    
       300   57.500938     -474.25601      0             -395.1808       10.369882    
       450   55.778011     -474.74663      0             -398.04079      11.405146    
       600   56.211438     -474.41636      0             -397.11446      12.338227    
       750   57.010929     -473.86188      0             -395.46052      12.159077    
       900   56.034605     -473.53335      0             -396.47463      10.235824    
      1050   56.570293     -473.21493      0             -395.41953      8.0450748    
      1200   58.924901     -472.55865      0             -391.5252       6.2456648    
      1350   53.89318      -471.50042      0             -397.38659      2.722538     
      1500   55.610604     -470.54647      0             -394.07084      0.89244183   
Loop time of 11.2798 on 256 procs for 1500 steps with 11640 atoms

Performance: 0.230 ns/day, 104.442 hours/ns, 132.981 timesteps/s, 1.548 Matom-step/s
100.0% CPU use with 256 MPI tasks x 1 OpenMP threads

MPI task timing breakdown:
Section |  min time  |  avg time  |  max time  |%varavg| %total
---------------------------------------------------------------
Pair    | 0.00011766 | 0.11869    | 7.471      | 176.2 |  1.05
Bond    | 0.00012723 | 0.00026591 | 0.00047623 |   0.0 |  0.00
Kspace  | 3.2154     | 10.238     | 10.395     |  18.1 | 90.76
Neigh   | 0.0062879  | 0.0066596  | 0.0067756  |   0.2 |  0.06
Comm    | 0.00052694 | 0.089522   | 0.76063    |  55.8 |  0.79
Output  | 0.0015769  | 0.0016301  | 0.0017404  |   0.1 |  0.01
Modify  | 0.2677     | 0.79151    | 0.90827    |  18.1 |  7.02
Other   |            | 0.03365    |            |       |  0.30

Nlocal:        45.4688 ave        1416 max           0 min
Histogram: 224 23 4 2 0 1 1 0 0 1
Nghost:        274.973 ave        2786 max           0 min
Histogram: 186 3 23 26 9 5 0 3 0 1
Neighs:        5069.77 ave      303015 max           0 min
Histogram: 249 4 0 0 1 1 0 0 0 1

Total # of neighbors = 1297860
Ave neighs/atom = 111.5
Ave special neighs/atom = 0.51546392
Neighbor list builds = 1
Dangerous builds = 0
unfix NVT1
reset_timestep 0

######### And faster still #########

thermo 150
timestep 0.00005
fix NVT1 H2O nvt temp 300 300 $(30.0*dt)
fix NVT1 H2O nvt temp 300 300 0.0015000000000000000312
run 1500
PPPM initialization ...
  using 12-bit tables for long-range coulomb (src/kspace.cpp:342)
  G vector (1/distance) = 0.27466065
  grid = 72 72 72
  stencil order = 5
  estimated absolute RMS force accuracy = 0.00016054877
  estimated relative force accuracy = 1.1149495e-05
  using double precision KISS FFT
  3d grid and FFT values/proc = 4508 1800
Generated 0 of 3 mixed pair_coeff terms from geometric mixing rule
SHAKE stats (type/ave/delta/count) on step 0
Bond:   1   1         7.54936e-10     2000
Angle:  1   109.47    7.85903e-08     1000
Per MPI rank memory allocation (min/avg/max) = 8.047 | 8.118 | 9.677 Mbytes
   Step          Temp          E_pair         E_mol          TotEng         Press     
         0   55.610604     -470.54647      0             -394.07084      0.89806563   
       150   55.676629     -469.42642      0             -392.85999     -5.1413598    
       300   56.911427     -467.37987      0             -389.11535     -8.6691979    
       450   57.347425     -464.22911      0             -385.36501     -9.8273806    
       600   56.934385     -462.69614      0             -384.40005     -10.995638    
       750   54.445626     -461.3226       0             -386.44904     -11.433181    
       900   55.381064     -460.25015      0             -384.09019     -10.812849    
      1050   55.297806     -458.212        0             -382.16653     -9.3717143    
      1200   56.714729     -456.47765      0             -378.48363     -6.5562403    
      1350   56.709812     -455.37222      0             -377.38496     -3.7175267    
      1500   56.638274     -455.81428      0             -377.9254      -2.6226286    
Loop time of 11.3398 on 256 procs for 1500 steps with 11640 atoms

Performance: 0.571 ns/day, 41.999 hours/ns, 132.277 timesteps/s, 1.540 Matom-step/s
100.0% CPU use with 256 MPI tasks x 1 OpenMP threads

MPI task timing breakdown:
Section |  min time  |  avg time  |  max time  |%varavg| %total
---------------------------------------------------------------
Pair    | 0.00011682 | 0.11882    | 7.4939     | 176.4 |  1.05
Bond    | 0.00012683 | 0.0002633  | 0.00062408 |   0.0 |  0.00
Kspace  | 3.2271     | 10.272     | 10.428     |  18.1 | 90.58
Neigh   | 0.01872    | 0.01959    | 0.019836   |   0.2 |  0.17
Comm    | 0.00069705 | 0.089911   | 0.76167    |  55.9 |  0.79
Output  | 0.0015797  | 0.0016328  | 0.001742   |   0.1 |  0.01
Modify  | 0.26962    | 0.80541    | 0.92291    |  18.1 |  7.10
Other   |            | 0.0327     |            |       |  0.29

Nlocal:        45.4688 ave        1410 max           0 min
Histogram: 224 23 4 2 0 1 1 0 0 1
Nghost:        274.734 ave        2786 max           0 min
Histogram: 186 3 23 26 10 4 0 3 0 1
Neighs:        5066.95 ave      301684 max           0 min
Histogram: 249 4 0 0 1 1 0 0 0 1

Total # of neighbors = 1297139
Ave neighs/atom = 111.43806
Ave special neighs/atom = 0.51546392
Neighbor list builds = 3
Dangerous builds = 0
unfix NVT1
reset_timestep 0

######### NVT equilibration for 10 ns #############

thermo 10000
#dump DUMP1 all atom 100 nvt_equi.lammpstrj
timestep 0.001
fix NVT1 H2O nvt temp 300 300 $(100.0*dt)
fix NVT1 H2O nvt temp 300 300 0.10000000000000000555
run 10000000
PPPM initialization ...
  using 12-bit tables for long-range coulomb (src/kspace.cpp:342)
  G vector (1/distance) = 0.27466065
  grid = 72 72 72
  stencil order = 5
  estimated absolute RMS force accuracy = 0.00016054877
  estimated relative force accuracy = 1.1149495e-05
  using double precision KISS FFT
  3d grid and FFT values/proc = 4508 1800
Generated 0 of 3 mixed pair_coeff terms from geometric mixing rule
SHAKE stats (type/ave/delta/count) on step 0
Bond:   1   1         1.31552e-09     2000
Angle:  1   109.47    1.07934e-07     1000
Per MPI rank memory allocation (min/avg/max) = 8.047 | 8.118 | 9.677 Mbytes
   Step          Temp          E_pair         E_mol          TotEng         Press     
         0   56.638274     -455.81428      0             -377.9254      -2.6862437    
SHAKE stats (type/ave/delta/count) on step 10000
Bond:   1   1         1.44722e-06     2000
Angle:  1   109.47    0.000105016     1000
     10000   55.842958     -462.6682       0             -385.87304     -10.169818    
SHAKE stats (type/ave/delta/count) on step 20000
Bond:   1   1         1.38946e-06     2000
Angle:  1   109.47    8.68253e-05     1000
     20000   55.200074     -463.17961      0             -387.26854     -7.6620068    
SHAKE stats (type/ave/delta/count) on step 30000
Bond:   1   1         1.17316e-06     2000
Angle:  1   109.47    8.38864e-05     1000
     30000   56.704847     -459.68397      0             -381.70354     -3.2032201    
SHAKE stats (type/ave/delta/count) on step 40000
Bond:   1   1         1.18461e-06     2000
Angle:  1   109.47    0.000118        1000
     40000   55.64189      -458.01388      0             -381.49523     -4.243766     
SHAKE stats (type/ave/delta/count) on step 50000
Bond:   1   1         1.88263e-06     2000
Angle:  1   109.47    0.000131103     1000
     50000   56.900641     -460.0591       0             -381.80941     -5.9130054    
SHAKE stats (type/ave/delta/count) on step 60000
Bond:   1   1         1.10836e-06     2000
Angle:  1   109.47    0.000128112     1000
     60000   55.362207     -461.04663      0             -384.91259      2.528585     
SHAKE stats (type/ave/delta/count) on step 70000
Bond:   1   1         1.09925e-06     2000
Angle:  1   109.47    9.13895e-05     1000
     70000   55.295203     -461.49016      0             -385.44827      1.0990561    
SHAKE stats (type/ave/delta/count) on step 80000
Bond:   1   1         1.12953e-06     2000
Angle:  1   109.47    0.000105358     1000
     80000   56.748705     -461.37697      0             -383.33623     -2.53794      
SHAKE stats (type/ave/delta/count) on step 90000
Bond:   1   1         1.63476e-06     2000
Angle:  1   109.47    0.000125794     1000
     90000   55.558385     -457.81401      0             -381.41019     -4.2052492    
SHAKE stats (type/ave/delta/count) on step 100000
Bond:   1   1         1.55176e-06     2000
Angle:  1   109.47    0.000107646     1000
    100000   57.461128     -456.80558      0             -377.78511     -6.5645522    
SHAKE stats (type/ave/delta/count) on step 110000
Bond:   1   1         1.11682e-06     2000
Angle:  1   109.47    9.63274e-05     1000
    110000   57.461509     -457.62405      0             -378.60306     -3.8399297    
SHAKE stats (type/ave/delta/count) on step 120000
Bond:   1   1         1.4738e-06      2000
Angle:  1   109.47    9.88882e-05     1000
    120000   55.594429     -461.11801      0             -384.66463     -2.8124792    
SHAKE stats (type/ave/delta/count) on step 130000
Bond:   1   1         1.44862e-06     2000
Angle:  1   109.47    9.58903e-05     1000
    130000   56.834894     -463.78578      0             -385.62651      2.2470543    
SHAKE stats (type/ave/delta/count) on step 140000
Bond:   1   1         1.00328e-06     2000
Angle:  1   109.47    8.43541e-05     1000
    140000   55.810202     -459.89287      0             -383.14275     -7.0469129    
SHAKE stats (type/ave/delta/count) on step 150000
Bond:   1   1         1.26477e-06     2000
Angle:  1   109.47    0.000102137     1000
    150000   56.573283     -459.15348      0             -381.35397     -1.9418476    
SHAKE stats (type/ave/delta/count) on step 160000
Bond:   1   1         1.3454e-06      2000
Angle:  1   109.47    9.26067e-05     1000
    160000   56.444436     -455.65363      0             -378.03132     -2.5065821    
SHAKE stats (type/ave/delta/count) on step 170000
Bond:   1   1         1.45285e-06     2000
Angle:  1   109.47    0.000119486     1000
    170000   55.233695     -459.47383      0             -383.51652     -11.319787    
SHAKE stats (type/ave/delta/count) on step 180000
Bond:   1   1         1.10877e-06     2000
Angle:  1   109.47    8.8603e-05      1000
    180000   56.376758     -457.5338       0             -380.00455     -6.886787     
SHAKE stats (type/ave/delta/count) on step 190000
Bond:   1   1         1.37234e-06     2000
Angle:  1   109.47    0.0001126       1000
    190000   55.650043     -460.38084      0             -383.85097     -1.4083917    
SHAKE stats (type/ave/delta/count) on step 200000
Bond:   1   1         1.18211e-06     2000
Angle:  1   109.47    9.94212e-05     1000
    200000   56.807718     -457.74671      0             -379.62481     -3.4042375    
SHAKE stats (type/ave/delta/count) on step 210000
Bond:   1   1         1.51782e-06     2000
Angle:  1   109.47    0.000111974     1000
    210000   54.684892     -461.16598      0             -385.96339     -1.9094473    
SHAKE stats (type/ave/delta/count) on step 220000
Bond:   1   1         1.43677e-06     2000
Angle:  1   109.47    0.000116298     1000
    220000   56.437793     -459.23348      0             -381.6203      -5.0778604    
SHAKE stats (type/ave/delta/count) on step 230000
Bond:   1   1         1.26104e-06     2000
Angle:  1   109.47    8.69334e-05     1000
    230000   55.252627     -460.86344      0             -384.8801      -1.5852845    
SHAKE stats (type/ave/delta/count) on step 240000
Bond:   1   1         1.21329e-06     2000
Angle:  1   109.47    9.39645e-05     1000
    240000   57.794675     -463.10889      0             -383.62973      0.98432187   
SHAKE stats (type/ave/delta/count) on step 250000
Bond:   1   1         9.91821e-07     2000
Angle:  1   109.47    8.76336e-05     1000
    250000   56.326254     -463.58324      0             -386.12345     -2.4663442    
SHAKE stats (type/ave/delta/count) on step 260000
Bond:   1   1         1.1313e-06      2000
Angle:  1   109.47    0.000116645     1000
    260000   55.291431     -456.2972       0             -380.2605      -9.0067233    
SHAKE stats (type/ave/delta/count) on step 270000
Bond:   1   1         1.39515e-06     2000
Angle:  1   109.47    0.000104662     1000
    270000   56.307807     -467.2509       0             -389.81648     -1.2668029    
SHAKE stats (type/ave/delta/count) on step 280000
Bond:   1   1         1.2985e-06      2000
Angle:  1   109.47    0.000130938     1000
    280000   57.402977     -464.47004      0             -385.52954     -0.57070606   
SHAKE stats (type/ave/delta/count) on step 290000
Bond:   1   1         2.16197e-06     2000
Angle:  1   109.47    0.000162059     1000
    290000   54.970412     -458.95791      0             -383.36268     -3.2187394    
SHAKE stats (type/ave/delta/count) on step 300000
Bond:   1   1         1.25138e-06     2000
Angle:  1   109.47    0.000103955     1000
    300000   56.109905     -459.03582      0             -381.87355      5.5158519    
SHAKE stats (type/ave/delta/count) on step 310000
Bond:   1   1         1.08088e-06     2000
Angle:  1   109.47    8.42944e-05     1000
    310000   56.174415     -457.67576      0             -380.42477     -5.5710718    
SHAKE stats (type/ave/delta/count) on step 320000
Bond:   1   1         1.06788e-06     2000
Angle:  1   109.47    8.69253e-05     1000
    320000   58.135689     -457.26922      0             -377.3211       2.0534033    
SHAKE stats (type/ave/delta/count) on step 330000
Bond:   1   1         1.17673e-06     2000
Angle:  1   109.47    9.46786e-05     1000
    330000   54.294045     -458.08739      0             -383.42229     -4.1331171    
SHAKE stats (type/ave/delta/count) on step 340000
Bond:   1   1         1.78331e-06     2000
Angle:  1   109.47    0.000139361     1000
    340000   57.196829     -455.99894      0             -377.34193     -6.2851482    
SHAKE stats (type/ave/delta/count) on step 350000
Bond:   1   1         1.31758e-06     2000
Angle:  1   109.47    0.000101609     1000
    350000   55.747061     -460.59554      0             -383.93225     -5.8213533    
SHAKE stats (type/ave/delta/count) on step 360000
Bond:   1   1         1.15394e-06     2000
Angle:  1   109.47    8.51503e-05     1000
    360000   56.354335     -461.01616      0             -383.51775     -4.2997537    
SHAKE stats (type/ave/delta/count) on step 370000
Bond:   1   1         1.33093e-06     2000
Angle:  1   109.47    0.000125748     1000
    370000   56.068948     -459.03314      0             -381.92719     -3.6048207    
SHAKE stats (type/ave/delta/count) on step 380000
Bond:   1   1         1.31971e-06     2000
Angle:  1   109.47    0.000106403     1000
    380000   54.987429     -463.36153      0             -387.74289      0.1249956    
SHAKE stats (type/ave/delta/count) on step 390000
Bond:   1   1         1.13412e-06     2000
Angle:  1   109.47    0.000139921     1000
    390000   56.660257     -458.81093      0             -380.89181     -2.8189866    
SHAKE stats (type/ave/delta/count) on step 400000
Bond:   1   1         1.1591e-06      2000
Angle:  1   109.47    0.00010446      1000
    400000   56.110039     -461.4623       0             -384.29985     -1.993037     
SHAKE stats (type/ave/delta/count) on step 410000
Bond:   1   1         1.21564e-06     2000
Angle:  1   109.47    8.94236e-05     1000
    410000   55.101871     -454.33935      0             -378.56333      2.0383422    
SHAKE stats (type/ave/delta/count) on step 420000
Bond:   1   1         1.5058e-06      2000
Angle:  1   109.47    9.91653e-05     1000
    420000   57.200666     -462.87757      0             -384.21529     -0.38272008   
SHAKE stats (type/ave/delta/count) on step 430000
Bond:   1   1         1.16699e-06     2000
Angle:  1   109.47    8.91294e-05     1000
    430000   57.898868     -455.75308      0             -376.13063     -4.4432081    
SHAKE stats (type/ave/delta/count) on step 440000
Bond:   1   1         1.14091e-06     2000
Angle:  1   109.47    9.19292e-05     1000
    440000   55.939209     -457.23232      0             -380.3048      -1.4975734    
SHAKE stats (type/ave/delta/count) on step 450000
Bond:   1   1         1.77326e-06     2000
Angle:  1   109.47    0.00011248      1000
    450000   55.440236     -464.52532      0             -388.28398     -3.8806999    
SHAKE stats (type/ave/delta/count) on step 460000
Bond:   1   1         1.06366e-06     2000
Angle:  1   109.47    0.000108232     1000
    460000   57.651945     -459.2751       0             -379.99222     -3.5932833    
SHAKE stats (type/ave/delta/count) on step 470000
Bond:   1   1         1.01611e-06     2000
Angle:  1   109.47    8.77176e-05     1000
    470000   58.508247     -456.52077      0             -376.0603       2.0926099    
SHAKE stats (type/ave/delta/count) on step 480000
Bond:   1   1         1.97504e-06     2000
Angle:  1   109.47    0.000182943     1000
    480000   56.194049     -458.10854      0             -380.83056     -1.8506242    
SHAKE stats (type/ave/delta/count) on step 490000
Bond:   1   1         1.12712e-06     2000
Angle:  1   109.47    8.54729e-05     1000
    490000   56.52774      -463.29757      0             -385.56069     -3.3719348    
SHAKE stats (type/ave/delta/count) on step 500000
Bond:   1   1         1.3966e-06      2000
Angle:  1   109.47    0.000119991     1000
    500000   55.177796     -462.2801       0             -386.39967      2.2390329    
SHAKE stats (type/ave/delta/count) on step 510000
Bond:   1   1         1.31547e-06     2000
Angle:  1   109.47    7.93505e-05     1000
    510000   57.323688     -457.92538      0             -379.09392     -7.0592018    
SHAKE stats (type/ave/delta/count) on step 520000
Bond:   1   1         1.12297e-06     2000
Angle:  1   109.47    8.76517e-05     1000
    520000   57.23164      -457.10341      0             -378.39854     -3.5741421    
SHAKE stats (type/ave/delta/count) on step 530000
Bond:   1   1         1.33666e-06     2000
Angle:  1   109.47    9.6833e-05      1000
    530000   54.352938     -458.9981       0             -384.25201     -1.775528     
SHAKE stats (type/ave/delta/count) on step 540000
Bond:   1   1         1.29015e-06     2000
Angle:  1   109.47    9.3973e-05      1000
    540000   56.33538      -460.38165      0             -382.90931     -8.4198121    
SHAKE stats (type/ave/delta/count) on step 550000
Bond:   1   1         1.10205e-06     2000
Angle:  1   109.47    0.000114627     1000
    550000   54.784811     -457.87948      0             -382.53948     -4.259738     
SHAKE stats (type/ave/delta/count) on step 560000
Bond:   1   1         1.00584e-06     2000
Angle:  1   109.47    8.58381e-05     1000
    560000   56.647939     -456.17424      0             -378.27207     -5.6445048    
SHAKE stats (type/ave/delta/count) on step 570000
Bond:   1   1         1.20483e-06     2000
Angle:  1   109.47    8.53408e-05     1000
    570000   55.414912     -459.98273      0             -383.77622     -10.450224    
SHAKE stats (type/ave/delta/count) on step 580000
Bond:   1   1         1.1989e-06      2000
Angle:  1   109.47    9.4191e-05      1000
    580000   57.467519     -456.13172      0             -377.10247      0.33132628   
SHAKE stats (type/ave/delta/count) on step 590000
Bond:   1   1         1.06567e-06     2000
Angle:  1   109.47    9.27527e-05     1000
    590000   56.892163     -452.48169      0             -374.24367     -2.4015716    
SHAKE stats (type/ave/delta/count) on step 600000
Bond:   1   1         1.46612e-06     2000
Angle:  1   109.47    0.000111841     1000
    600000   58.078947     -460.5878       0             -380.71771     -5.456251     
SHAKE stats (type/ave/delta/count) on step 610000
Bond:   1   1         1.5106e-06      2000
Angle:  1   109.47    9.40065e-05     1000
    610000   56.624261     -459.18561      0             -381.316       -2.663894     
SHAKE stats (type/ave/delta/count) on step 620000
Bond:   1   1         1.05263e-06     2000
Angle:  1   109.47    9.00187e-05     1000
    620000   57.414168     -454.06168      0             -375.10579     -6.5315294    
SHAKE stats (type/ave/delta/count) on step 630000
Bond:   1   1         1.15864e-06     2000
Angle:  1   109.47    0.000128381     1000
    630000   54.465877     -458.39113      0             -383.48973     -10.816281    
SHAKE stats (type/ave/delta/count) on step 640000
Bond:   1   1         1.56411e-06     2000
Angle:  1   109.47    0.000104454     1000
    640000   57.281139     -458.88573      0             -380.11278     -4.8046851    
SHAKE stats (type/ave/delta/count) on step 650000
Bond:   1   1         1.13457e-06     2000
Angle:  1   109.47    0.000101679     1000
    650000   54.758927     -457.54089      0             -382.23648     -6.9630641    
SHAKE stats (type/ave/delta/count) on step 660000
Bond:   1   1         1.07311e-06     2000
Angle:  1   109.47    9.73887e-05     1000
    660000   55.16107      -454.081        0             -378.22356     -2.7740214    
SHAKE stats (type/ave/delta/count) on step 670000
Bond:   1   1         1.03219e-06     2000
Angle:  1   109.47    9.08949e-05     1000
    670000   55.602952     -458.37752      0             -381.91242     -5.1327277    
SHAKE stats (type/ave/delta/count) on step 680000
Bond:   1   1         1.08468e-06     2000
Angle:  1   109.47    9.70132e-05     1000
    680000   54.539215     -454.06386      0             -379.0616      -6.3954217    
SHAKE stats (type/ave/delta/count) on step 690000
Bond:   1   1         1.18061e-06     2000
Angle:  1   109.47    8.82191e-05     1000
    690000   56.233028     -461.09694      0             -383.76535     -0.32494639   
SHAKE stats (type/ave/delta/count) on step 700000
Bond:   1   1         1.07375e-06     2000
Angle:  1   109.47    9.5234e-05      1000
    700000   57.790877     -460.12265      0             -380.64871     -1.4152742    
SHAKE stats (type/ave/delta/count) on step 710000
Bond:   1   1         1.11763e-06     2000
Angle:  1   109.47    8.99504e-05     1000
    710000   56.912129     -460.28666      0             -382.02117     -4.7991949    
SHAKE stats (type/ave/delta/count) on step 720000
Bond:   1   1         1.84997e-06     2000
Angle:  1   109.47    0.000110592     1000
    720000   55.738977     -459.50331      0             -382.85115     -3.7171033    
SHAKE stats (type/ave/delta/count) on step 730000
Bond:   1   1         1.15734e-06     2000
Angle:  1   109.47    8.66854e-05     1000
    730000   57.755829     -460.75513      0             -381.32939      5.5391922    
SHAKE stats (type/ave/delta/count) on step 740000
Bond:   1   1         1.39413e-06     2000
Angle:  1   109.47    0.000113824     1000
    740000   55.334911     -459.30302      0             -383.20652     -2.7994777    
SHAKE stats (type/ave/delta/count) on step 750000
Bond:   1   1         1.30019e-06     2000
Angle:  1   109.47    0.000102838     1000
    750000   54.977292     -460.783        0             -385.1783       2.2166712    
SHAKE stats (type/ave/delta/count) on step 760000
Bond:   1   1         1.11652e-06     2000
Angle:  1   109.47    0.000107069     1000
    760000   57.141745     -459.68175      0             -381.10049     -1.4512963    
SHAKE stats (type/ave/delta/count) on step 770000
Bond:   1   1         1.84278e-06     2000
Angle:  1   109.47    0.000125835     1000
    770000   57.879078     -461.93362      0             -382.33839      0.5985551    
SHAKE stats (type/ave/delta/count) on step 780000
Bond:   1   1         1.07003e-06     2000
Angle:  1   109.47    0.000104031     1000
    780000   56.294604     -457.84541      0             -380.42915      1.5709328    
SHAKE stats (type/ave/delta/count) on step 790000
Bond:   1   1         1.16333e-06     2000
Angle:  1   109.47    9.58807e-05     1000
    790000   58.10292      -459.83968      0             -379.93663      5.8611186    
SHAKE stats (type/ave/delta/count) on step 800000
Bond:   1   1         1.5046e-06      2000
Angle:  1   109.47    0.000142713     1000
    800000   54.911307     -455.33958      0             -379.82562      0.20943793   
SHAKE stats (type/ave/delta/count) on step 810000
Bond:   1   1         1.01602e-06     2000
Angle:  1   109.47    9.2735e-05      1000
    810000   55.674913     -457.91054      0             -381.34647      3.8493968    
SHAKE stats (type/ave/delta/count) on step 820000
Bond:   1   1         1.23654e-06     2000
Angle:  1   109.47    9.74301e-05     1000
    820000   55.146126     -456.18727      0             -380.35039     -2.4949186    
SHAKE stats (type/ave/delta/count) on step 830000
Bond:   1   1         1.00949e-06     2000
Angle:  1   109.47    8.60755e-05     1000
    830000   55.395063     -459.06882      0             -382.8896      -3.418318     
SHAKE stats (type/ave/delta/count) on step 840000
Bond:   1   1         1.55699e-06     2000
Angle:  1   109.47    0.000129454     1000
    840000   55.014057     -462.4835       0             -386.82824     -6.3943847    
SHAKE stats (type/ave/delta/count) on step 850000
Bond:   1   1         9.95021e-07     2000
Angle:  1   109.47    8.52434e-05     1000
    850000   56.450544     -460.40546      0             -382.77475     -3.2092456    
SHAKE stats (type/ave/delta/count) on step 860000
Bond:   1   1         1.17952e-06     2000
Angle:  1   109.47    0.000110565     1000
    860000   57.680571     -462.81766      0             -383.49541      2.7779177    
SHAKE stats (type/ave/delta/count) on step 870000
Bond:   1   1         1.16631e-06     2000
Angle:  1   109.47    8.65239e-05     1000
    870000   55.270292     -459.06954      0             -383.06191     -2.1787534    
SHAKE stats (type/ave/delta/count) on step 880000
Bond:   1   1         1.3597e-06      2000
Angle:  1   109.47    0.000127668     1000
    880000   56.468185     -455.68289      0             -378.02792     -7.0616282    
SHAKE stats (type/ave/delta/count) on step 890000
Bond:   1   1         1.37467e-06     2000
Angle:  1   109.47    9.47697e-05     1000
    890000   58.517447     -458.88764      0             -378.41452     -5.266091     
SHAKE stats (type/ave/delta/count) on step 900000
Bond:   1   1         1.14167e-06     2000
Angle:  1   109.47    9.63391e-05     1000
    900000   55.989691     -462.97397      0             -385.97702      3.9983526    
SHAKE stats (type/ave/delta/count) on step 910000
Bond:   1   1         1.11858e-06     2000
Angle:  1   109.47    9.93353e-05     1000
    910000   58.586168     -457.9586       0             -377.39098     -7.5533566    
SHAKE stats (type/ave/delta/count) on step 920000
Bond:   1   1         1.38137e-06     2000
Angle:  1   109.47    9.14115e-05     1000
    920000   56.283409     -466.00669      0             -388.60582     -1.7244183    
SHAKE stats (type/ave/delta/count) on step 930000
Bond:   1   1         2.32847e-06     2000
Angle:  1   109.47    0.000167517     1000
    930000   56.929955     -459.47924      0             -381.18925     -5.0026619    
SHAKE stats (type/ave/delta/count) on step 940000
Bond:   1   1         1.17616e-06     2000
Angle:  1   109.47    9.65046e-05     1000
    940000   58.61984      -459.31834      0             -378.70441      0.40608999   
SHAKE stats (type/ave/delta/count) on step 950000
Bond:   1   1         1.19333e-06     2000
Angle:  1   109.47    9.04046e-05     1000
    950000   57.03321      -459.64816      0             -381.21617     -2.5659394    
SHAKE stats (type/ave/delta/count) on step 960000
Bond:   1   1         1.21692e-06     2000
Angle:  1   109.47    0.000101306     1000
    960000   56.257951     -457.90588      0             -380.54002     -6.9155715    
SHAKE stats (type/ave/delta/count) on step 970000
Bond:   1   1         1.07442e-06     2000
Angle:  1   109.47    8.66304e-05     1000
    970000   57.542189     -459.17277      0             -380.04083     -5.8492593    
SHAKE stats (type/ave/delta/count) on step 980000
Bond:   1   1         1.53631e-06     2000
Angle:  1   109.47    0.000113555     1000
    980000   55.010578     -459.14615      0             -383.49567     -8.9745092    
SHAKE stats (type/ave/delta/count) on step 990000
Bond:   1   1         1.0907e-06      2000
Angle:  1   109.47    0.000101563     1000
    990000   55.074393     -458.34582      0             -382.60759     -10.247282    
SHAKE stats (type/ave/delta/count) on step 1000000
Bond:   1   1         1.31807e-06     2000
Angle:  1   109.47    9.98056e-05     1000
   1000000   56.930139     -458.73424      0             -380.44399     -2.6183713    
SHAKE stats (type/ave/delta/count) on step 1010000
Bond:   1   1         1.70796e-06     2000
Angle:  1   109.47    0.000124242     1000
   1010000   57.385284     -460.39843      0             -381.48226     -4.820547     
SHAKE stats (type/ave/delta/count) on step 1020000
Bond:   1   1         1.89587e-06     2000
Angle:  1   109.47    0.000144771     1000
   1020000   53.142604     -458.4981       0             -385.41646     -4.9562234    
SHAKE stats (type/ave/delta/count) on step 1030000
Bond:   1   1         1.14047e-06     2000
Angle:  1   109.47    0.000107034     1000
   1030000   57.190379     -455.58353      0             -376.93539     -5.650818     
SHAKE stats (type/ave/delta/count) on step 1040000
Bond:   1   1         1.17659e-06     2000
Angle:  1   109.47    9.16264e-05     1000
   1040000   55.696359     -455.8188       0             -379.22524     -9.9833718    
SHAKE stats (type/ave/delta/count) on step 1050000
Bond:   1   1         1.52178e-06     2000
Angle:  1   109.47    0.00010293      1000
   1050000   54.321689     -463.31442      0             -388.6113       0.26175498   
SHAKE stats (type/ave/delta/count) on step 1060000
Bond:   1   1         1.07992e-06     2000
Angle:  1   109.47    8.5274e-05      1000
   1060000   57.629326     -454.55216      0             -375.30038     -1.21468      
SHAKE stats (type/ave/delta/count) on step 1070000
Bond:   1   1         1.14934e-06     2000
Angle:  1   109.47    8.32984e-05     1000
   1070000   58.62351      -458.69879      0             -378.07982     -7.6179995    
SHAKE stats (type/ave/delta/count) on step 1080000
Bond:   1   1         1.3361e-06      2000
Angle:  1   109.47    0.000102316     1000
   1080000   56.424314     -459.91939      0             -382.32474     -2.035562     
SHAKE stats (type/ave/delta/count) on step 1090000
Bond:   1   1         1.03612e-06     2000
Angle:  1   109.47    8.0226e-05      1000
   1090000   55.969079     -460.63319      0             -383.66458     -4.4267378    
SHAKE stats (type/ave/delta/count) on step 1100000
Bond:   1   1         1.05335e-06     2000
Angle:  1   109.47    9.82353e-05     1000
   1100000   55.711297     -458.39177      0             -381.77767     -8.3745279    
SHAKE stats (type/ave/delta/count) on step 1110000
Bond:   1   1         1.24171e-06     2000
Angle:  1   109.47    9.46774e-05     1000
   1110000   57.221501     -460.805        0             -382.11407      1.2441836    
SHAKE stats (type/ave/delta/count) on step 1120000
Bond:   1   1         1.3041e-06      2000
Angle:  1   109.47    9.95919e-05     1000
   1120000   56.226        -463.20357      0             -385.88165      0.9453205    
SHAKE stats (type/ave/delta/count) on step 1130000
Bond:   1   1         1.12664e-06     2000
Angle:  1   109.47    0.000109457     1000
   1130000   56.341068     -461.63593      0             -384.15576     -5.7313003    
SHAKE stats (type/ave/delta/count) on step 1140000
Bond:   1   1         1.04375e-06     2000
Angle:  1   109.47    9.00331e-05     1000
   1140000   54.241898     -458.00821      0             -383.41483     -1.3920889    
SHAKE stats (type/ave/delta/count) on step 1150000
Bond:   1   1         1.16778e-06     2000
Angle:  1   109.47    8.9183e-05      1000
   1150000   56.373829     -460.29216      0             -382.76695     -4.7510591    
SHAKE stats (type/ave/delta/count) on step 1160000
Bond:   1   1         1.18976e-06     2000
Angle:  1   109.47    8.76197e-05     1000
   1160000   54.88079      -460.85677      0             -385.38478     -2.3575716    
SHAKE stats (type/ave/delta/count) on step 1170000
Bond:   1   1         1.33182e-06     2000
Angle:  1   109.47    9.79934e-05     1000
   1170000   57.484328     -458.46334      0             -379.41097     -2.9993787    
SHAKE stats (type/ave/delta/count) on step 1180000
Bond:   1   1         1.74932e-06     2000
Angle:  1   109.47    0.000153283     1000
   1180000   56.630467     -461.66467      0             -383.78653      0.88102365   
SHAKE stats (type/ave/delta/count) on step 1190000
Bond:   1   1         1.11422e-06     2000
Angle:  1   109.47    9.41744e-05     1000
   1190000   56.372064     -456.2455       0             -378.72271     -1.646087     
SHAKE stats (type/ave/delta/count) on step 1200000
Bond:   1   1         1.02854e-06     2000
Angle:  1   109.47    9.27464e-05     1000
   1200000   53.935918     -459.20516      0             -385.03256     -1.4145377    
SHAKE stats (type/ave/delta/count) on step 1210000
Bond:   1   1         1.01505e-06     2000
Angle:  1   109.47    0.000103196     1000
   1210000   56.535595     -458.81081      0             -381.06314     -4.4064091    
SHAKE stats (type/ave/delta/count) on step 1220000
Bond:   1   1         1.41689e-06     2000
Angle:  1   109.47    0.000108817     1000
   1220000   56.052976     -460.90873      0             -383.82475     -5.63623      
SHAKE stats (type/ave/delta/count) on step 1230000
Bond:   1   1         1.72559e-06     2000
Angle:  1   109.47    0.000128918     1000
   1230000   55.841696     -462.01131      0             -385.21788     -4.8745064    
SHAKE stats (type/ave/delta/count) on step 1240000
Bond:   1   1         1.47068e-06     2000
Angle:  1   109.47    0.000116917     1000
   1240000   57.132243     -456.73992      0             -378.17174     -5.650524     
SHAKE stats (type/ave/delta/count) on step 1250000
Bond:   1   1         1.57292e-06     2000
Angle:  1   109.47    0.000107979     1000
   1250000   55.053942     -462.77804      0             -387.06793     -1.9671235    
SHAKE stats (type/ave/delta/count) on step 1260000
Bond:   1   1         1.20732e-06     2000
Angle:  1   109.47    9.9632e-05      1000
   1260000   56.587977     -463.66497      0             -385.84525     -6.3915142    
SHAKE stats (type/ave/delta/count) on step 1270000
Bond:   1   1         1.10485e-06     2000
Angle:  1   109.47    8.88312e-05     1000
   1270000   54.757665     -457.08635      0             -381.78368      0.63803659   
SHAKE stats (type/ave/delta/count) on step 1280000
Bond:   1   1         1.07202e-06     2000
Angle:  1   109.47    9.19363e-05     1000
   1280000   56.547741     -459.13366      0             -381.36928      3.2670291    
SHAKE stats (type/ave/delta/count) on step 1290000
Bond:   1   1         1.37667e-06     2000
Angle:  1   109.47    0.000107796     1000
   1290000   56.264697     -455.69238      0             -378.31724     -3.0754436    
SHAKE stats (type/ave/delta/count) on step 1300000
Bond:   1   1         1.14522e-06     2000
Angle:  1   109.47    9.25268e-05     1000
   1300000   56.804004     -455.99809      0             -377.88129     -2.0438976    
SHAKE stats (type/ave/delta/count) on step 1310000
Bond:   1   1         1.08622e-06     2000
Angle:  1   109.47    9.10291e-05     1000
   1310000   56.493055     -456.4885       0             -378.79933     -8.6745388    
SHAKE stats (type/ave/delta/count) on step 1320000
Bond:   1   1         1.4519e-06      2000
Angle:  1   109.47    0.000111617     1000
   1320000   55.420755     -460.07367      0             -383.85912     -6.2911402    
SHAKE stats (type/ave/delta/count) on step 1330000
Bond:   1   1         1.08285e-06     2000
Angle:  1   109.47    9.0373e-05      1000
   1330000   57.323304     -459.77316      0             -380.94222     -7.7349105    
SHAKE stats (type/ave/delta/count) on step 1340000
Bond:   1   1         1.24928e-06     2000
Angle:  1   109.47    8.77123e-05     1000
   1340000   56.295825     -460.95805      0             -383.54011      0.45305612   
SHAKE stats (type/ave/delta/count) on step 1350000
Bond:   1   1         1.35362e-06     2000
Angle:  1   109.47    0.000102173     1000
   1350000   55.331007     -459.09402      0             -383.00289     -12.940346    
SHAKE stats (type/ave/delta/count) on step 1360000
Bond:   1   1         1.42927e-06     2000
Angle:  1   109.47    0.000108596     1000
   1360000   56.2108       -459.96438      0             -382.66336     -3.6331449    
SHAKE stats (type/ave/delta/count) on step 1370000
Bond:   1   1         1.36304e-06     2000
Angle:  1   109.47    0.000116739     1000
   1370000   55.727826     -459.77407      0             -383.13724     -3.9292826    
SHAKE stats (type/ave/delta/count) on step 1380000
Bond:   1   1         1.23465e-06     2000
Angle:  1   109.47    9.57341e-05     1000
   1380000   54.910604     -458.2947       0             -382.78171     -7.7548583    
SHAKE stats (type/ave/delta/count) on step 1390000
Bond:   1   1         1.0664e-06      2000
Angle:  1   109.47    8.46781e-05     1000
   1390000   56.155095     -456.61121      0             -379.3868       0.90509288   
SHAKE stats (type/ave/delta/count) on step 1400000
Bond:   1   1         1.58968e-06     2000
Angle:  1   109.47    0.000104089     1000
   1400000   57.536718     -461.36987      0             -382.24545     -1.0858317    
SHAKE stats (type/ave/delta/count) on step 1410000
Bond:   1   1         1.10703e-06     2000
Angle:  1   109.47    8.76034e-05     1000
   1410000   56.148307     -460.75161      0             -383.53653     -2.1937122    
SHAKE stats (type/ave/delta/count) on step 1420000
Bond:   1   1         1.77433e-06     2000
Angle:  1   109.47    9.51248e-05     1000
   1420000   54.366514     -457.87186      0             -383.1071      -5.5547702    
SHAKE stats (type/ave/delta/count) on step 1430000
Bond:   1   1         1.31295e-06     2000
Angle:  1   109.47    0.000104876     1000
   1430000   55.705348     -462.06383      0             -385.45791     -5.4187476    
SHAKE stats (type/ave/delta/count) on step 1440000
Bond:   1   1         1.22168e-06     2000
Angle:  1   109.47    9.76735e-05     1000
   1440000   56.103018     -458.86915      0             -381.71635     -3.561463     
SHAKE stats (type/ave/delta/count) on step 1450000
Bond:   1   1         1.06288e-06     2000
Angle:  1   109.47    9.05222e-05     1000
   1450000   56.569856     -455.50556      0             -377.71076     -3.7369072    
SHAKE stats (type/ave/delta/count) on step 1460000
Bond:   1   1         1.28507e-06     2000
Angle:  1   109.47    9.1454e-05      1000
   1460000   55.127563     -457.58483      0             -381.77348     -4.4557028    
SHAKE stats (type/ave/delta/count) on step 1470000
Bond:   1   1         1.44889e-06     2000
Angle:  1   109.47    0.000104506     1000
   1470000   54.789961     -457.08189      0             -381.73481     -5.0702817    
SHAKE stats (type/ave/delta/count) on step 1480000
Bond:   1   1         1.31373e-06     2000
Angle:  1   109.47    0.000101948     1000
   1480000   56.535317     -462.73166      0             -384.98436     -7.0433783    
SHAKE stats (type/ave/delta/count) on step 1490000
Bond:   1   1         1.11518e-06     2000
Angle:  1   109.47    9.50569e-05     1000
   1490000   56.331241     -459.51604      0             -382.04939     -5.8435696    
SHAKE stats (type/ave/delta/count) on step 1500000
Bond:   1   1         1.21887e-06     2000
Angle:  1   109.47    0.000107168     1000
   1500000   57.21529      -457.95952      0             -379.27713     -8.9498435    
SHAKE stats (type/ave/delta/count) on step 1510000
Bond:   1   1         1.34939e-06     2000
Angle:  1   109.47    0.000117311     1000
   1510000   56.28628      -459.98162      0             -382.5768      -1.3167093    
SHAKE stats (type/ave/delta/count) on step 1520000
Bond:   1   1         1.19206e-06     2000
Angle:  1   109.47    8.97793e-05     1000
   1520000   56.075746     -460.00286      0             -382.88756     -1.7568918    
SHAKE stats (type/ave/delta/count) on step 1530000
Bond:   1   1         1.28404e-06     2000
Angle:  1   109.47    9.44691e-05     1000
   1530000   56.695966     -459.25959      0             -381.29138     -3.5536807    
SHAKE stats (type/ave/delta/count) on step 1540000
Bond:   1   1         1.25525e-06     2000
Angle:  1   109.47    0.000119731     1000
   1540000   56.307446     -463.30596      0             -385.87204     -0.62853404   
SHAKE stats (type/ave/delta/count) on step 1550000
Bond:   1   1         1.16212e-06     2000
Angle:  1   109.47    9.63422e-05     1000
   1550000   56.58032      -458.09817      0             -380.28898      0.56471222   
SHAKE stats (type/ave/delta/count) on step 1560000
Bond:   1   1         1.13504e-06     2000
Angle:  1   109.47    9.61827e-05     1000
   1560000   56.513096     -457.79354      0             -380.07681     -3.6675456    
SHAKE stats (type/ave/delta/count) on step 1570000
Bond:   1   1         1.84441e-06     2000
Angle:  1   109.47    0.000144855     1000
   1570000   56.009335     -460.80958      0             -383.78561     -2.604877     
SHAKE stats (type/ave/delta/count) on step 1580000
Bond:   1   1         1.20735e-06     2000
Angle:  1   109.47    8.96178e-05     1000
   1580000   55.872896     -457.86828      0             -381.03195     -5.6682441    
SHAKE stats (type/ave/delta/count) on step 1590000
Bond:   1   1         1.40202e-06     2000
Angle:  1   109.47    9.66062e-05     1000
   1590000   56.964742     -457.1894       0             -378.85156     -5.3586572    
SHAKE stats (type/ave/delta/count) on step 1600000
Bond:   1   1         9.95379e-07     2000
Angle:  1   109.47    9.54966e-05     1000
   1600000   58.258854     -456.65642      0             -376.53892     -1.7647447    
SHAKE stats (type/ave/delta/count) on step 1610000
Bond:   1   1         1.27892e-06     2000
Angle:  1   109.47    8.60042e-05     1000
   1610000   56.457973     -459.82772      0             -382.18679      1.4148946    
SHAKE stats (type/ave/delta/count) on step 1620000
Bond:   1   1         1.27842e-06     2000
Angle:  1   109.47    8.99715e-05     1000
   1620000   55.140767     -455.04872      0             -379.21921      2.9376567    
SHAKE stats (type/ave/delta/count) on step 1630000
Bond:   1   1         1.19093e-06     2000
Angle:  1   109.47    8.81323e-05     1000
   1630000   55.376971     -459.91475      0             -383.76042     -4.7533477    
SHAKE stats (type/ave/delta/count) on step 1640000
Bond:   1   1         2.42369e-06     2000
Angle:  1   109.47    0.000170225     1000
   1640000   56.43861      -458.7255       0             -381.1112      -4.9471102    
SHAKE stats (type/ave/delta/count) on step 1650000
Bond:   1   1         1.13691e-06     2000
Angle:  1   109.47    9.2957e-05      1000
   1650000   57.662976     -458.90344      0             -379.60539     -2.3732729    
SHAKE stats (type/ave/delta/count) on step 1660000
Bond:   1   1         1.40139e-06     2000
Angle:  1   109.47    0.000112762     1000
   1660000   57.535265     -459.71163      0             -380.58921     -3.0525884    
SHAKE stats (type/ave/delta/count) on step 1670000
Bond:   1   1         1.34524e-06     2000
Angle:  1   109.47    0.000107134     1000
   1670000   55.368091     -456.19495      0             -380.05283     -4.7517014    
SHAKE stats (type/ave/delta/count) on step 1680000
Bond:   1   1         1.32167e-06     2000
Angle:  1   109.47    9.31314e-05     1000
   1680000   57.142201     -461.15578      0             -382.5739      -1.8758502    
SHAKE stats (type/ave/delta/count) on step 1690000
Bond:   1   1         1.52588e-06     2000
Angle:  1   109.47    0.000111417     1000
   1690000   55.915229     -461.88336      0             -384.98881     -3.8154125    
SHAKE stats (type/ave/delta/count) on step 1700000
Bond:   1   1         1.50437e-06     2000
Angle:  1   109.47    0.000101367     1000
   1700000   56.179412     -460.66088      0             -383.40302     -3.8429507    
SHAKE stats (type/ave/delta/count) on step 1710000
Bond:   1   1         1.29878e-06     2000
Angle:  1   109.47    9.08401e-05     1000
   1710000   56.17658      -459.08392      0             -381.82996     -6.9693166    
SHAKE stats (type/ave/delta/count) on step 1720000
Bond:   1   1         1.37693e-06     2000
Angle:  1   109.47    9.86373e-05     1000
   1720000   55.628403     -456.79772      0             -380.29762     -3.9605857    
SHAKE stats (type/ave/delta/count) on step 1730000
Bond:   1   1         1.28206e-06     2000
Angle:  1   109.47    0.00010837      1000
   1730000   58.305685     -456.92482      0             -376.74292     -2.0506259    
SHAKE stats (type/ave/delta/count) on step 1740000
Bond:   1   1         2.07866e-06     2000
Angle:  1   109.47    0.000158976     1000
   1740000   55.923926     -458.54305      0             -381.63654      0.94977814   
SHAKE stats (type/ave/delta/count) on step 1750000
Bond:   1   1         1.59665e-06     2000
Angle:  1   109.47    0.000126974     1000
   1750000   54.923575     -457.2298       0             -381.69897     -7.5493724    
SHAKE stats (type/ave/delta/count) on step 1760000
Bond:   1   1         1.0549e-06      2000
Angle:  1   109.47    9.58856e-05     1000
   1760000   55.565011     -460.16162      0             -383.74869     -5.4074354    
SHAKE stats (type/ave/delta/count) on step 1770000
Bond:   1   1         1.23043e-06     2000
Angle:  1   109.47    9.83318e-05     1000
   1770000   56.128718     -457.82679      0             -380.63865     -5.5555916    
SHAKE stats (type/ave/delta/count) on step 1780000
Bond:   1   1         1.45282e-06     2000
Angle:  1   109.47    8.67044e-05     1000
   1780000   56.05705      -458.75016      0             -381.66058     -2.7553445    
SHAKE stats (type/ave/delta/count) on step 1790000
Bond:   1   1         1.13231e-06     2000
Angle:  1   109.47    8.94745e-05     1000
   1790000   56.365293     -457.14033      0             -379.62685     -3.2225388    
SHAKE stats (type/ave/delta/count) on step 1800000
Bond:   1   1         1.60379e-06     2000
Angle:  1   109.47    0.000107907     1000
   1800000   57.945835     -460.94052      0             -381.25349      0.81811493   
SHAKE stats (type/ave/delta/count) on step 1810000
Bond:   1   1         1.21579e-06     2000
Angle:  1   109.47    9.11793e-05     1000
   1810000   58.541293     -459.04698      0             -378.54107      5.6549912    
SHAKE stats (type/ave/delta/count) on step 1820000
Bond:   1   1         1.15048e-06     2000
Angle:  1   109.47    0.000112117     1000
   1820000   55.556641     -457.68556      0             -381.28414     -0.34881234   
SHAKE stats (type/ave/delta/count) on step 1830000
Bond:   1   1         1.66545e-06     2000
Angle:  1   109.47    0.000159522     1000
   1830000   59.606905     -459.43269      0             -377.46135     -8.6696451    
SHAKE stats (type/ave/delta/count) on step 1840000
Bond:   1   1         1.0462e-06      2000
Angle:  1   109.47    9.37358e-05     1000
   1840000   56.11335      -462.21002      0             -385.04302     -7.7443595    
SHAKE stats (type/ave/delta/count) on step 1850000
Bond:   1   1         1.12376e-06     2000
Angle:  1   109.47    9.31906e-05     1000
   1850000   54.742087     -461.33027      0             -386.04902     -0.82279905   
SHAKE stats (type/ave/delta/count) on step 1860000
Bond:   1   1         1.12848e-06     2000
Angle:  1   109.47    9.57682e-05     1000
   1860000   54.243759     -461.58947      0             -386.99352     -5.8673887    
SHAKE stats (type/ave/delta/count) on step 1870000
Bond:   1   1         1.13403e-06     2000
Angle:  1   109.47    9.36807e-05     1000
   1870000   56.13179      -460.56086      0             -383.36849     -7.3991251    
SHAKE stats (type/ave/delta/count) on step 1880000
Bond:   1   1         1.43764e-06     2000
Angle:  1   109.47    0.000119379     1000
   1880000   56.489048     -461.36596      0             -383.6823      -4.9965246    
SHAKE stats (type/ave/delta/count) on step 1890000
Bond:   1   1         1.3319e-06      2000
Angle:  1   109.47    0.00010531      1000
   1890000   58.004685     -456.35106      0             -376.5831      -5.4597348    
SHAKE stats (type/ave/delta/count) on step 1900000
Bond:   1   1         1.16193e-06     2000
Angle:  1   109.47    9.74067e-05     1000
   1900000   56.855427     -457.69925      0             -379.51174      0.78626714   
SHAKE stats (type/ave/delta/count) on step 1910000
Bond:   1   1         1.20542e-06     2000
Angle:  1   109.47    0.000111041     1000
   1910000   56.591242     -461.09034      0             -383.26614     -4.098834     
SHAKE stats (type/ave/delta/count) on step 1920000
Bond:   1   1         1.08179e-06     2000
Angle:  1   109.47    9.22815e-05     1000
   1920000   57.428492     -464.47015      0             -385.49456     -6.6747502    
SHAKE stats (type/ave/delta/count) on step 1930000
Bond:   1   1         1.56761e-06     2000
Angle:  1   109.47    0.000101909     1000
   1930000   55.894309     -457.33214      0             -380.46636     -6.2908604    
SHAKE stats (type/ave/delta/count) on step 1940000
Bond:   1   1         1.19961e-06     2000
Angle:  1   109.47    9.48821e-05     1000
   1940000   56.675853     -457.42058      0             -379.48002     -2.7665761    
SHAKE stats (type/ave/delta/count) on step 1950000
Bond:   1   1         1.67146e-06     2000
Angle:  1   109.47    0.00010571      1000
   1950000   57.472079     -463.48076      0             -384.44523     -5.2369257    
SHAKE stats (type/ave/delta/count) on step 1960000
Bond:   1   1         1.14071e-06     2000
Angle:  1   109.47    9.79746e-05     1000
   1960000   56.865129     -461.13461      0             -382.93376     -4.9606214    
SHAKE stats (type/ave/delta/count) on step 1970000
Bond:   1   1         1.21616e-06     2000
Angle:  1   109.47    0.000103424     1000
   1970000   55.759559     -461.54358      0             -384.86311     -0.07183294   
SHAKE stats (type/ave/delta/count) on step 1980000
Bond:   1   1         1.10306e-06     2000
Angle:  1   109.47    9.54052e-05     1000
   1980000   55.333413     -456.81369      0             -380.71925     -9.127747     
SHAKE stats (type/ave/delta/count) on step 1990000
Bond:   1   1         1.13495e-06     2000
Angle:  1   109.47    9.39581e-05     1000
   1990000   55.100491     -457.32988      0             -381.55576     -5.8153762    
SHAKE stats (type/ave/delta/count) on step 2000000
Bond:   1   1         1.25514e-06     2000
Angle:  1   109.47    9.61426e-05     1000
   2000000   56.456777     -458.54494      0             -380.90566     -2.5262641    
SHAKE stats (type/ave/delta/count) on step 2010000
Bond:   1   1         1.12704e-06     2000
Angle:  1   109.47    9.41383e-05     1000
   2010000   56.479021     -458.93204      0             -381.26217     -4.9362029    
SHAKE stats (type/ave/delta/count) on step 2020000
Bond:   1   1         1.24783e-06     2000
Angle:  1   109.47    0.000100689     1000
   2020000   56.984617     -456.35976      0             -377.99459      0.41319746   
SHAKE stats (type/ave/delta/count) on step 2030000
Bond:   1   1         1.36761e-06     2000
Angle:  1   109.47    0.000106217     1000
   2030000   56.522429     -459.87962      0             -382.15005     -9.7006374    
SHAKE stats (type/ave/delta/count) on step 2040000
Bond:   1   1         1.1644e-06      2000
Angle:  1   109.47    9.3359e-05      1000
   2040000   56.554508     -454.98691      0             -377.21322     -5.0487085    
SHAKE stats (type/ave/delta/count) on step 2050000
Bond:   1   1         1.37474e-06     2000
Angle:  1   109.47    0.000108287     1000
   2050000   56.179309     -458.038        0             -380.78029     -1.8879157    
SHAKE stats (type/ave/delta/count) on step 2060000
Bond:   1   1         1.21014e-06     2000
Angle:  1   109.47    0.000100491     1000
   2060000   56.395242     -457.74061      0             -380.18594     -1.3806637    
SHAKE stats (type/ave/delta/count) on step 2070000
Bond:   1   1         1.11275e-06     2000
Angle:  1   109.47    8.9486e-05      1000
   2070000   57.267306     -455.39201      0             -376.63809     -5.7753278    
SHAKE stats (type/ave/delta/count) on step 2080000
Bond:   1   1         1.56064e-06     2000
Angle:  1   109.47    0.00013374      1000
   2080000   59.180497     -456.97998      0             -375.59504     -9.2984778    
SHAKE stats (type/ave/delta/count) on step 2090000
Bond:   1   1         1.52991e-06     2000
Angle:  1   109.47    0.000137642     1000
   2090000   56.563807     -459.88306      0             -382.09659     -6.6801287    
SHAKE stats (type/ave/delta/count) on step 2100000
Bond:   1   1         1.71463e-06     2000
Angle:  1   109.47    9.95633e-05     1000
   2100000   56.399647     -460.2667       0             -382.70598     -6.2318557    
SHAKE stats (type/ave/delta/count) on step 2110000
Bond:   1   1         1.94599e-06     2000
Angle:  1   109.47    0.000139983     1000
   2110000   55.93108      -460.63953      0             -383.72319     -3.5439494    
SHAKE stats (type/ave/delta/count) on step 2120000
Bond:   1   1         1.09157e-06     2000
Angle:  1   109.47    9.02172e-05     1000
   2120000   56.776101     -459.90747      0             -381.82905     -6.9833808    
SHAKE stats (type/ave/delta/count) on step 2130000
Bond:   1   1         1.28967e-06     2000
Angle:  1   109.47    0.000104302     1000
   2130000   55.04756      -458.72452      0             -383.02319     -6.8677602    
SHAKE stats (type/ave/delta/count) on step 2140000
Bond:   1   1         1.84408e-06     2000
Angle:  1   109.47    0.000132894     1000
   2140000   57.192277     -455.41445      0             -376.76371     -7.6770853    
SHAKE stats (type/ave/delta/count) on step 2150000
Bond:   1   1         1.47125e-06     2000
Angle:  1   109.47    0.000116679     1000
   2150000   57.101338     -456.61662      0             -378.09094     -3.3080142    
SHAKE stats (type/ave/delta/count) on step 2160000
Bond:   1   1         1.33733e-06     2000
Angle:  1   109.47    9.2438e-05      1000
   2160000   55.096375     -456.38174      0             -380.61328     -9.2086985    
SHAKE stats (type/ave/delta/count) on step 2170000
Bond:   1   1         1.65742e-06     2000
Angle:  1   109.47    0.000115109     1000
   2170000   56.204231     -458.73267      0             -381.44069      0.39476679   
SHAKE stats (type/ave/delta/count) on step 2180000
Bond:   1   1         1.13784e-06     2000
Angle:  1   109.47    8.95795e-05     1000
   2180000   56.999672     -458.71121      0             -380.32534      2.3032286    
SHAKE stats (type/ave/delta/count) on step 2190000
Bond:   1   1         1.74452e-06     2000
Angle:  1   109.47    0.000140737     1000
   2190000   56.427377     -458.58119      0             -380.98234      1.5541934    
SHAKE stats (type/ave/delta/count) on step 2200000
Bond:   1   1         1.03381e-06     2000
Angle:  1   109.47    8.35018e-05     1000
   2200000   58.251453     -459.65814      0             -379.55082     -5.3195733    
SHAKE stats (type/ave/delta/count) on step 2210000
Bond:   1   1         1.71272e-06     2000
Angle:  1   109.47    0.000153258     1000
   2210000   56.197754     -458.7213       0             -381.43823     -7.6687288    
SHAKE stats (type/ave/delta/count) on step 2220000
Bond:   1   1         1.06018e-06     2000
Angle:  1   109.47    0.000105736     1000
   2220000   56.467708     -459.31719      0             -381.66287     -4.8760237    
SHAKE stats (type/ave/delta/count) on step 2230000
Bond:   1   1         1.24428e-06     2000
Angle:  1   109.47    0.000106484     1000
   2230000   56.169132     -458.39538      0             -381.15166     -8.2212222    
SHAKE stats (type/ave/delta/count) on step 2240000
Bond:   1   1         1.35883e-06     2000
Angle:  1   109.47    0.000106078     1000
   2240000   56.528097     -454.67575      0             -376.93839     -9.3669263    
SHAKE stats (type/ave/delta/count) on step 2250000
Bond:   1   1         1.10709e-06     2000
Angle:  1   109.47    9.07229e-05     1000
   2250000   55.837929     -456.80023      0             -380.01198     -6.1223431    
SHAKE stats (type/ave/delta/count) on step 2260000
Bond:   1   1         1.13327e-06     2000
Angle:  1   109.47    8.7858e-05      1000
   2260000   56.280974     -458.56804      0             -381.17052     -2.5486826    
SHAKE stats (type/ave/delta/count) on step 2270000
Bond:   1   1         1.02748e-06     2000
Angle:  1   109.47    9.25853e-05     1000
   2270000   55.379458     -456.81777      0             -380.66001     -6.0969823    
SHAKE stats (type/ave/delta/count) on step 2280000
Bond:   1   1         1.11328e-06     2000
Angle:  1   109.47    0.000102437     1000
   2280000   56.331879     -456.05046      0             -378.58293     -6.8144813    
SHAKE stats (type/ave/delta/count) on step 2290000
Bond:   1   1         1.28791e-06     2000
Angle:  1   109.47    9.55436e-05     1000
   2290000   55.450052     -458.36656      0             -382.11172     -3.9473986    
SHAKE stats (type/ave/delta/count) on step 2300000
Bond:   1   1         1.2453e-06      2000
Angle:  1   109.47    0.000102374     1000
   2300000   55.271893     -458.79165      0             -382.78182     -4.6941957    
SHAKE stats (type/ave/delta/count) on step 2310000
Bond:   1   1         1.12472e-06     2000
Angle:  1   109.47    9.20308e-05     1000
   2310000   55.493918     -457.1741       0             -380.85893     -3.7926426    
SHAKE stats (type/ave/delta/count) on step 2320000
Bond:   1   1         1.08428e-06     2000
Angle:  1   109.47    8.3091e-05      1000
   2320000   58.096451     -459.34905      0             -379.45488      3.7538651    
SHAKE stats (type/ave/delta/count) on step 2330000
Bond:   1   1         1.50252e-06     2000
Angle:  1   109.47    9.66518e-05     1000
   2330000   55.726412     -459.17625      0             -382.54136     -0.1264369    
SHAKE stats (type/ave/delta/count) on step 2340000
Bond:   1   1         1.32113e-06     2000
Angle:  1   109.47    0.000119495     1000
   2340000   56.930912     -456.99432      0             -378.703       -4.5405529    
SHAKE stats (type/ave/delta/count) on step 2350000
Bond:   1   1         1.10832e-06     2000
Angle:  1   109.47    9.07959e-05     1000
   2350000   56.31534      -453.92021      0             -376.47543      0.8423542    
SHAKE stats (type/ave/delta/count) on step 2360000
Bond:   1   1         1.54413e-06     2000
Angle:  1   109.47    0.000148813     1000
   2360000   55.842804     -455.71822      0             -378.92327     -7.1116431    
SHAKE stats (type/ave/delta/count) on step 2370000
Bond:   1   1         1.38455e-06     2000
Angle:  1   109.47    0.000101579     1000
   2370000   57.13821      -462.35325      0             -383.77686      1.5979626    
SHAKE stats (type/ave/delta/count) on step 2380000
Bond:   1   1         1.26129e-06     2000
Angle:  1   109.47    9.23033e-05     1000
   2380000   55.349115     -457.67776      0             -381.56174     -7.1486881    
SHAKE stats (type/ave/delta/count) on step 2390000
Bond:   1   1         1.0912e-06      2000
Angle:  1   109.47    8.69455e-05     1000
   2390000   59.4943       -461.47015      0             -379.65366     -5.1137082    
SHAKE stats (type/ave/delta/count) on step 2400000
Bond:   1   1         1.19379e-06     2000
Angle:  1   109.47    9.97554e-05     1000
   2400000   57.336584     -461.88726      0             -383.03806     -2.0045264    
SHAKE stats (type/ave/delta/count) on step 2410000
Bond:   1   1         1.48264e-06     2000
Angle:  1   109.47    8.48091e-05     1000
   2410000   56.821278     -460.20358      0             -382.06304     -8.5906642    
SHAKE stats (type/ave/delta/count) on step 2420000
Bond:   1   1         1.2214e-06      2000
Angle:  1   109.47    9.58004e-05     1000
   2420000   55.524887     -458.04783      0             -381.69008     -6.7151663    
SHAKE stats (type/ave/delta/count) on step 2430000
Bond:   1   1         1.02729e-06     2000
Angle:  1   109.47    9.71329e-05     1000
   2430000   56.241558     -456.80868      0             -379.46536     -4.8923737    
SHAKE stats (type/ave/delta/count) on step 2440000
Bond:   1   1         1.21122e-06     2000
Angle:  1   109.47    0.000133926     1000
   2440000   56.79179      -458.26023      0             -380.16023     -5.3847335    
SHAKE stats (type/ave/delta/count) on step 2450000
Bond:   1   1         1.25263e-06     2000
Angle:  1   109.47    0.00010824      1000
   2450000   56.312286     -462.68897      0             -385.24838     -4.5834165    
SHAKE stats (type/ave/delta/count) on step 2460000
Bond:   1   1         1.14125e-06     2000
Angle:  1   109.47    9.4832e-05      1000
   2460000   57.002789     -460.30096      0             -381.9108      -1.2789925    
SHAKE stats (type/ave/delta/count) on step 2470000
Bond:   1   1         1.48034e-06     2000
Angle:  1   109.47    0.000117559     1000
   2470000   57.284492     -460.01937      0             -381.24181     -2.5969945    
SHAKE stats (type/ave/delta/count) on step 2480000
Bond:   1   1         1.95283e-06     2000
Angle:  1   109.47    0.000146233     1000
   2480000   57.036377     -459.37393      0             -380.93758     -12.686765    
SHAKE stats (type/ave/delta/count) on step 2490000
Bond:   1   1         1.13357e-06     2000
Angle:  1   109.47    9.19849e-05     1000
   2490000   56.207078     -456.5337       0             -379.2378      -4.5185743    
SHAKE stats (type/ave/delta/count) on step 2500000
Bond:   1   1         1.16263e-06     2000
Angle:  1   109.47    8.72914e-05     1000
   2500000   54.820677     -458.42605      0             -383.03673     -9.8757563    
SHAKE stats (type/ave/delta/count) on step 2510000
Bond:   1   1         1.85395e-06     2000
Angle:  1   109.47    0.000166613     1000
   2510000   57.294237     -459.04421      0             -380.25326     -1.9748927    
SHAKE stats (type/ave/delta/count) on step 2520000
Bond:   1   1         1.22859e-06     2000
Angle:  1   109.47    0.000119337     1000
   2520000   54.315954     -456.67615      0             -381.98092     -4.5577481    
SHAKE stats (type/ave/delta/count) on step 2530000
Bond:   1   1         1.80983e-06     2000
Angle:  1   109.47    0.000115214     1000
   2530000   55.573902     -462.68797      0             -386.26281     -2.0097076    
SHAKE stats (type/ave/delta/count) on step 2540000
Bond:   1   1         1.31272e-06     2000
Angle:  1   109.47    9.83171e-05     1000
   2540000   53.810303     -455.22102      0             -381.22116      0.37318721   
SHAKE stats (type/ave/delta/count) on step 2550000
Bond:   1   1         1.69544e-06     2000
Angle:  1   109.47    0.000162043     1000
   2550000   55.07081      -454.1484       0             -378.4151      -1.3560839    
SHAKE stats (type/ave/delta/count) on step 2560000
Bond:   1   1         1.03332e-06     2000
Angle:  1   109.47    9.10944e-05     1000
   2560000   55.803144     -458.62927      0             -381.88886     -1.0281878    
SHAKE stats (type/ave/delta/count) on step 2570000
Bond:   1   1         1.36195e-06     2000
Angle:  1   109.47    0.000104856     1000
   2570000   56.939943     -452.83754      0             -374.5338      -2.1039453    
SHAKE stats (type/ave/delta/count) on step 2580000
Bond:   1   1         1.38571e-06     2000
Angle:  1   109.47    9.61962e-05     1000
   2580000   55.748983     -454.83053      0             -378.1646      -10.194067    
SHAKE stats (type/ave/delta/count) on step 2590000
Bond:   1   1         1.02697e-06     2000
Angle:  1   109.47    8.83546e-05     1000
   2590000   56.344508     -456.48907      0             -379.00418     -5.6222331    
SHAKE stats (type/ave/delta/count) on step 2600000
Bond:   1   1         1.03039e-06     2000
Angle:  1   109.47    8.88655e-05     1000
   2600000   57.944596     -457.42513      0             -377.7398      -2.5644328    
SHAKE stats (type/ave/delta/count) on step 2610000
Bond:   1   1         1.15455e-06     2000
Angle:  1   109.47    9.29926e-05     1000
   2610000   56.736        -457.20577      0             -379.1825      -4.5730949    
SHAKE stats (type/ave/delta/count) on step 2620000
Bond:   1   1         1.25783e-06     2000
Angle:  1   109.47    9.58513e-05     1000
   2620000   57.626656     -461.13242      0             -381.88432     -1.2275093    
SHAKE stats (type/ave/delta/count) on step 2630000
Bond:   1   1         1.52088e-06     2000
Angle:  1   109.47    9.14565e-05     1000
   2630000   57.663432     -457.94769      0             -378.64902     -0.36001277   
SHAKE stats (type/ave/delta/count) on step 2640000
Bond:   1   1         1.2689e-06      2000
Angle:  1   109.47    0.00011529      1000
   2640000   58.381356     -461.15897      0             -380.873        0.25213364   
SHAKE stats (type/ave/delta/count) on step 2650000
Bond:   1   1         1.7188e-06      2000
Angle:  1   109.47    0.000136576     1000
   2650000   56.723187     -459.84812      0             -381.84246      1.7195624    
SHAKE stats (type/ave/delta/count) on step 2660000
Bond:   1   1         1.20315e-06     2000
Angle:  1   109.47    9.07747e-05     1000
   2660000   56.49696      -459.27554      0             -381.58099     -0.28638854   
SHAKE stats (type/ave/delta/count) on step 2670000
Bond:   1   1         1.23015e-06     2000
Angle:  1   109.47    9.98872e-05     1000
   2670000   57.282515     -456.94542      0             -378.17058     -2.5454451    
SHAKE stats (type/ave/delta/count) on step 2680000
Bond:   1   1         1.24375e-06     2000
Angle:  1   109.47    0.000124974     1000
   2680000   57.256355     -461.06727      0             -382.32841     -3.7833862    
SHAKE stats (type/ave/delta/count) on step 2690000
Bond:   1   1         1.31829e-06     2000
Angle:  1   109.47    0.000101543     1000
   2690000   56.747752     -460.95975      0             -382.92031      0.017010428  
SHAKE stats (type/ave/delta/count) on step 2700000
Bond:   1   1         1.53415e-06     2000
Angle:  1   109.47    0.000120249     1000
   2700000   55.751013     -460.81205      0             -384.14333     -0.30269596   
SHAKE stats (type/ave/delta/count) on step 2710000
Bond:   1   1         1.40579e-06     2000
Angle:  1   109.47    9.41452e-05     1000
   2710000   53.655285     -457.77951      0             -383.99283     -6.5683301    
SHAKE stats (type/ave/delta/count) on step 2720000
Bond:   1   1         1.11757e-06     2000
Angle:  1   109.47    9.34312e-05     1000
   2720000   56.465838     -460.80997      0             -383.15822     -2.1322549    
SHAKE stats (type/ave/delta/count) on step 2730000
Bond:   1   1         1.7042e-06      2000
Angle:  1   109.47    0.000107846     1000
   2730000   56.814948     -460.14639      0             -382.01455      0.61976039   
SHAKE stats (type/ave/delta/count) on step 2740000
Bond:   1   1         1.03051e-06     2000
Angle:  1   109.47    9.32973e-05     1000
   2740000   55.517525     -455.82163      0             -379.474       -1.7673344    
SHAKE stats (type/ave/delta/count) on step 2750000
Bond:   1   1         1.17079e-06     2000
Angle:  1   109.47    9.32064e-05     1000
   2750000   57.691372     -456.601        0             -377.2639      -5.2789736    
SHAKE stats (type/ave/delta/count) on step 2760000
Bond:   1   1         1.21826e-06     2000
Angle:  1   109.47    8.8898e-05      1000
   2760000   57.056498     -458.8989       0             -380.43488     -6.2565835    
SHAKE stats (type/ave/delta/count) on step 2770000
Bond:   1   1         1.07389e-06     2000
Angle:  1   109.47    8.41471e-05     1000
   2770000   56.215141     -455.86772      0             -378.56073     -9.3933543    
SHAKE stats (type/ave/delta/count) on step 2780000
Bond:   1   1         1.01596e-06     2000
Angle:  1   109.47    8.54929e-05     1000
   2780000   55.03673      -458.83999      0             -383.15355      0.77587039   
SHAKE stats (type/ave/delta/count) on step 2790000
Bond:   1   1         2.24879e-06     2000
Angle:  1   109.47    0.000162276     1000
   2790000   56.115827     -459.13568      0             -381.96526     -3.4922719    
SHAKE stats (type/ave/delta/count) on step 2800000
Bond:   1   1         1.39451e-06     2000
Angle:  1   109.47    0.000110591     1000
   2800000   55.721024     -457.7127       0             -381.08522     -2.0110573    
SHAKE stats (type/ave/delta/count) on step 2810000
Bond:   1   1         1.11005e-06     2000
Angle:  1   109.47    8.47751e-05     1000
   2810000   56.46397      -460.81123      0             -383.16206     -0.50573354   
SHAKE stats (type/ave/delta/count) on step 2820000
Bond:   1   1         1.01753e-06     2000
Angle:  1   109.47    9.23534e-05     1000
   2820000   54.548741     -459.82666      0             -384.8113      -2.0132054    
SHAKE stats (type/ave/delta/count) on step 2830000
Bond:   1   1         1.26042e-06     2000
Angle:  1   109.47    0.000112569     1000
   2830000   57.364793     -456.77345      0             -377.88546     -7.7570231    
SHAKE stats (type/ave/delta/count) on step 2840000
Bond:   1   1         1.1849e-06      2000
[...]
SHAKE stats (type/ave/delta/count) on step 9220000
Bond:   1   1         1.23451e-06     2000
Angle:  1   109.47    0.000122753     1000
   9220000   57.318733     -455.96099      0             -377.13634     -2.3376788    
SHAKE stats (type/ave/delta/count) on step 9230000
Bond:   1   1         1.03199e-06     2000
Angle:  1   109.47    9.77668e-05     1000
   9230000   57.96099      -459.85732      0             -380.14944     -2.7455507    
SHAKE stats (type/ave/delta/count) on step 9240000
Bond:   1   1         1.10409e-06     2000
Angle:  1   109.47    8.38441e-05     1000
   9240000   56.011676     -456.46178      0             -379.4346      -9.5794429    
SHAKE stats (type/ave/delta/count) on step 9250000
Bond:   1   1         1.13388e-06     2000
Angle:  1   109.47    9.53312e-05     1000
   9250000   55.631405     -459.49221      0             -382.98798      2.0344736    
SHAKE stats (type/ave/delta/count) on step 9260000
Bond:   1   1         1.19403e-06     2000
Angle:  1   109.47    9.48902e-05     1000
   9260000   56.305561     -460.70052      0             -383.26919     -4.5884623    
SHAKE stats (type/ave/delta/count) on step 9270000
Bond:   1   1         1.3232e-06      2000
Angle:  1   109.47    9.44065e-05     1000
   9270000   54.710912     -458.08397      0             -382.84559     -7.8629854    
SHAKE stats (type/ave/delta/count) on step 9280000
Bond:   1   1         1.40237e-06     2000
Angle:  1   109.47    8.99213e-05     1000
   9280000   56.610249     -457.2741       0             -379.42376     -5.6577421    
SHAKE stats (type/ave/delta/count) on step 9290000
Bond:   1   1         1.24973e-06     2000
Angle:  1   109.47    0.000108693     1000
   9290000   56.454707     -458.4271       0             -380.79066     -0.59346793   
SHAKE stats (type/ave/delta/count) on step 9300000
Bond:   1   1         1.86089e-06     2000
Angle:  1   109.47    0.000151103     1000
   9300000   55.914311     -457.84337      0             -380.95009      1.9098706    
SHAKE stats (type/ave/delta/count) on step 9310000
Bond:   1   1         1.60499e-06     2000
Angle:  1   109.47    0.000116824     1000
   9310000   55.547739     -460.16893      0             -383.77975     -1.342012     
SHAKE stats (type/ave/delta/count) on step 9320000
Bond:   1   1         1.39577e-06     2000
Angle:  1   109.47    0.000103919     1000
   9320000   57.567205     -461.27759      0             -382.11124      1.1672467    
SHAKE stats (type/ave/delta/count) on step 9330000
Bond:   1   1         1.20962e-06     2000
Angle:  1   109.47    9.41129e-05     1000
   9330000   57.604038     -457.41735      0             -378.20035     -0.73283932   
SHAKE stats (type/ave/delta/count) on step 9340000
Bond:   1   1         1.17083e-06     2000
Angle:  1   109.47    9.20386e-05     1000
   9340000   57.486008     -455.89006      0             -376.83537     -9.7980191    
SHAKE stats (type/ave/delta/count) on step 9350000
Bond:   1   1         1.2298e-06      2000
Angle:  1   109.47    0.000100663     1000
   9350000   54.966883     -463.04423      0             -387.45385      0.49879756   
SHAKE stats (type/ave/delta/count) on step 9360000
Bond:   1   1         1.15501e-06     2000
Angle:  1   109.47    0.000103334     1000
   9360000   58.986436     -458.17474      0             -377.05667     -3.0247565    
SHAKE stats (type/ave/delta/count) on step 9370000
Bond:   1   1         1.14748e-06     2000
Angle:  1   109.47    9.56113e-05     1000
   9370000   56.44662      -456.97855      0             -379.35323     -4.3400504    
SHAKE stats (type/ave/delta/count) on step 9380000
Bond:   1   1         2.16086e-06     2000
Angle:  1   109.47    0.000167369     1000
   9380000   55.839582     -461.67608      0             -384.88556     -4.9297122    
SHAKE stats (type/ave/delta/count) on step 9390000
Bond:   1   1         1.07752e-06     2000
Angle:  1   109.47    8.99488e-05     1000
   9390000   55.706779     -459.18404      0             -382.57615     -10.550481    
SHAKE stats (type/ave/delta/count) on step 9400000
Bond:   1   1         1.10826e-06     2000
Angle:  1   109.47    0.00010421      1000
   9400000   55.347785     -458.88782      0             -382.77362     -9.7698557    
SHAKE stats (type/ave/delta/count) on step 9410000
Bond:   1   1         1.15934e-06     2000
Angle:  1   109.47    0.000120278     1000
   9410000   56.012931     -455.32925      0             -378.30034     -6.3695161    
SHAKE stats (type/ave/delta/count) on step 9420000
Bond:   1   1         1.72828e-06     2000
Angle:  1   109.47    0.000133408     1000
   9420000   55.584495     -458.47961      0             -382.03988     -2.1577115    
SHAKE stats (type/ave/delta/count) on step 9430000
Bond:   1   1         1.12781e-06     2000
Angle:  1   109.47    0.000103481     1000
   9430000   56.246545     -459.27367      0             -381.92349      1.6534402    
SHAKE stats (type/ave/delta/count) on step 9440000
Bond:   1   1         1.6062e-06      2000
Angle:  1   109.47    0.000144855     1000
   9440000   56.1995       -458.48407      0             -381.19859     -2.0889916    
SHAKE stats (type/ave/delta/count) on step 9450000
Bond:   1   1         1.28572e-06     2000
Angle:  1   109.47    9.07537e-05     1000
   9450000   57.250346     -465.05502      0             -386.32442     -3.4299273    
SHAKE stats (type/ave/delta/count) on step 9460000
Bond:   1   1         1.78075e-06     2000
Angle:  1   109.47    0.000115922     1000
   9460000   55.791061     -463.75455      0             -387.03075     -2.844174     
SHAKE stats (type/ave/delta/count) on step 9470000
Bond:   1   1         1.17902e-06     2000
Angle:  1   109.47    8.67103e-05     1000
   9470000   57.140569     -452.15989      0             -373.58025     -10.465395    
SHAKE stats (type/ave/delta/count) on step 9480000
Bond:   1   1         1.26202e-06     2000
Angle:  1   109.47    8.91774e-05     1000
   9480000   56.49329      -457.06038      0             -379.37088     -1.6695736    
SHAKE stats (type/ave/delta/count) on step 9490000
Bond:   1   1         9.94446e-07     2000
Angle:  1   109.47    0.000106682     1000
   9490000   56.372489     -458.95916      0             -381.43579     -9.4652706    
SHAKE stats (type/ave/delta/count) on step 9500000
Bond:   1   1         1.47498e-06     2000
Angle:  1   109.47    0.000105736     1000
   9500000   55.895127     -459.96862      0             -383.10172      8.4435993    
SHAKE stats (type/ave/delta/count) on step 9510000
Bond:   1   1         1.33962e-06     2000
Angle:  1   109.47    0.000105839     1000
   9510000   56.522925     -457.02389      0             -379.29364     -3.1333882    
SHAKE stats (type/ave/delta/count) on step 9520000
Bond:   1   1         1.10216e-06     2000
Angle:  1   109.47    8.30012e-05     1000
   9520000   56.599289     -462.31076      0             -384.47549     -3.0214307    
SHAKE stats (type/ave/delta/count) on step 9530000
Bond:   1   1         1.60432e-06     2000
Angle:  1   109.47    0.000119947     1000
   9530000   56.912402     -465.67865      0             -387.41279     -5.0367315    
SHAKE stats (type/ave/delta/count) on step 9540000
Bond:   1   1         1.24237e-06     2000
Angle:  1   109.47    9.53969e-05     1000
   9540000   57.094416     -459.91223      0             -381.39607     -7.5350546    
SHAKE stats (type/ave/delta/count) on step 9550000
Bond:   1   1         1.22148e-06     2000
Angle:  1   109.47    9.3667e-05      1000
   9550000   55.623907     -458.0374       0             -381.54348     -6.3460889    
SHAKE stats (type/ave/delta/count) on step 9560000
Bond:   1   1         1.33431e-06     2000
Angle:  1   109.47    9.65201e-05     1000
   9560000   57.17376      -457.66227      0             -379.03699     -3.9147971    
SHAKE stats (type/ave/delta/count) on step 9570000
Bond:   1   1         1.05777e-06     2000
Angle:  1   109.47    8.82611e-05     1000
   9570000   56.259015     -460.48983      0             -383.12251     -1.0680876    
SHAKE stats (type/ave/delta/count) on step 9580000
Bond:   1   1         1.14559e-06     2000
Angle:  1   109.47    9.35595e-05     1000
   9580000   58.517332     -459.30135      0             -378.82839     -3.7737618    
SHAKE stats (type/ave/delta/count) on step 9590000
Bond:   1   1         1.31206e-06     2000
Angle:  1   109.47    0.0001047       1000
   9590000   54.218678     -461.79763      0             -387.23618     -9.5037297    
SHAKE stats (type/ave/delta/count) on step 9600000
Bond:   1   1         1.43909e-06     2000
Angle:  1   109.47    0.000111118     1000
   9600000   55.530914     -463.19417      0             -386.82813     -9.9932548    
SHAKE stats (type/ave/delta/count) on step 9610000
Bond:   1   1         2.10506e-06     2000
Angle:  1   109.47    0.000177727     1000
   9610000   53.522318     -460.3248       0             -386.72098     -0.2629972    
SHAKE stats (type/ave/delta/count) on step 9620000
Bond:   1   1         1.24785e-06     2000
Angle:  1   109.47    0.000112081     1000
   9620000   56.772364     -459.58321      0             -381.50993     -8.5959319    
SHAKE stats (type/ave/delta/count) on step 9630000
Bond:   1   1         1.31136e-06     2000
Angle:  1   109.47    9.35039e-05     1000
   9630000   56.827385     -461.64784      0             -383.49889     -5.6149531    
SHAKE stats (type/ave/delta/count) on step 9640000
Bond:   1   1         1.15679e-06     2000
Angle:  1   109.47    9.87319e-05     1000
   9640000   55.910358     -462.31597      0             -385.42812     -5.3263307    
SHAKE stats (type/ave/delta/count) on step 9650000
Bond:   1   1         1.76155e-06     2000
Angle:  1   109.47    0.000190378     1000
   9650000   58.771362     -459.82411      0             -379.00182      0.015433106  
SHAKE stats (type/ave/delta/count) on step 9660000
Bond:   1   1         1.29594e-06     2000
Angle:  1   109.47    0.000106662     1000
   9660000   56.070931     -461.34484      0             -384.23617      0.43766949   
SHAKE stats (type/ave/delta/count) on step 9670000
Bond:   1   1         1.01119e-06     2000
Angle:  1   109.47    8.60136e-05     1000
   9670000   55.295749     -459.72492      0             -383.68228     -2.9322807    
SHAKE stats (type/ave/delta/count) on step 9680000
Bond:   1   1         1.28947e-06     2000
Angle:  1   109.47    9.4482e-05      1000
   9680000   55.235506     -460.72196      0             -384.76216     -4.1539951    
SHAKE stats (type/ave/delta/count) on step 9690000
Bond:   1   1         1.06047e-06     2000
Angle:  1   109.47    9.18092e-05     1000
   9690000   55.285456     -460.26299      0             -384.2345      -2.1268949    
SHAKE stats (type/ave/delta/count) on step 9700000
Bond:   1   1         1.1897e-06      2000
Angle:  1   109.47    9.04851e-05     1000
   9700000   58.124408     -456.86178      0             -376.92917      1.6259191    
SHAKE stats (type/ave/delta/count) on step 9710000
Bond:   1   1         1.25376e-06     2000
Angle:  1   109.47    9.42649e-05     1000
   9710000   58.157754     -460.97187      0             -380.9934       0.40716911   
SHAKE stats (type/ave/delta/count) on step 9720000
Bond:   1   1         1.28758e-06     2000
Angle:  1   109.47    0.000105596     1000
   9720000   55.156249     -458.22986      0             -382.37906     -2.2595566    
SHAKE stats (type/ave/delta/count) on step 9730000
Bond:   1   1         1.05613e-06     2000
Angle:  1   109.47    9.18448e-05     1000
   9730000   54.266255     -461.13602      0             -386.50914     -11.593219    
SHAKE stats (type/ave/delta/count) on step 9740000
Bond:   1   1         1.37442e-06     2000
Angle:  1   109.47    0.000118444     1000
   9740000   54.818469     -461.2049       0             -385.81862     -3.6259592    
SHAKE stats (type/ave/delta/count) on step 9750000
Bond:   1   1         1.66251e-06     2000
Angle:  1   109.47    0.000128325     1000
   9750000   56.742048     -459.46973      0             -381.43814     -4.0321016    
SHAKE stats (type/ave/delta/count) on step 9760000
Bond:   1   1         1.37498e-06     2000
Angle:  1   109.47    0.000127518     1000
   9760000   57.074337     -454.14729      0             -375.65873     -6.1262254    
SHAKE stats (type/ave/delta/count) on step 9770000
Bond:   1   1         1.15408e-06     2000
Angle:  1   109.47    9.1887e-05      1000
   9770000   56.22953      -459.23885      0             -381.91207     -7.1272666    
SHAKE stats (type/ave/delta/count) on step 9780000
Bond:   1   1         1.0427e-06      2000
Angle:  1   109.47    9.29618e-05     1000
   9780000   57.114367     -460.34588      0             -381.80228     -8.2386925    
SHAKE stats (type/ave/delta/count) on step 9790000
Bond:   1   1         1.29583e-06     2000
Angle:  1   109.47    0.000108534     1000
   9790000   58.00187      -462.19213      0             -382.42803      0.31414672   
SHAKE stats (type/ave/delta/count) on step 9800000
Bond:   1   1         1.14562e-06     2000
Angle:  1   109.47    9.2331e-05      1000
   9800000   55.490065     -457.11685      0             -380.80698      0.65018982   
SHAKE stats (type/ave/delta/count) on step 9810000
Bond:   1   1         1.41557e-06     2000
Angle:  1   109.47    0.000112545     1000
   9810000   56.411289     -456.45429      0             -378.87756     -8.3719695    
SHAKE stats (type/ave/delta/count) on step 9820000
Bond:   1   1         1.12017e-06     2000
Angle:  1   109.47    8.84836e-05     1000
   9820000   58.067757     -459.1206       0             -379.26589     -4.1807044    
SHAKE stats (type/ave/delta/count) on step 9830000
Bond:   1   1         1.20855e-06     2000
Angle:  1   109.47    9.26028e-05     1000
   9830000   55.289418     -463.67224      0             -387.63831     -0.76775347   
SHAKE stats (type/ave/delta/count) on step 9840000
Bond:   1   1         1.20968e-06     2000
Angle:  1   109.47    8.56474e-05     1000
   9840000   56.863665     -458.38567      0             -380.18683     -5.7124644    
SHAKE stats (type/ave/delta/count) on step 9850000
Bond:   1   1         1.03394e-06     2000
Angle:  1   109.47    8.65215e-05     1000
   9850000   56.178798     -458.13231      0             -380.8753       0.17127432   
SHAKE stats (type/ave/delta/count) on step 9860000
Bond:   1   1         1.0684e-06      2000
Angle:  1   109.47    8.73299e-05     1000
   9860000   57.665276     -462.2375       0             -382.93629      0.58446407   
SHAKE stats (type/ave/delta/count) on step 9870000
Bond:   1   1         1.36399e-06     2000
Angle:  1   109.47    0.000157889     1000
   9870000   54.585427     -461.86337      0             -386.79756      1.4586577    
SHAKE stats (type/ave/delta/count) on step 9880000
Bond:   1   1         1.12373e-06     2000
Angle:  1   109.47    9.7069e-05      1000
   9880000   56.987464     -456.85717      0             -378.48809     -3.233544     
SHAKE stats (type/ave/delta/count) on step 9890000
Bond:   1   1         1.25583e-06     2000
Angle:  1   109.47    9.11412e-05     1000
   9890000   55.768036     -465.44298      0             -388.75085     -0.41644131   
SHAKE stats (type/ave/delta/count) on step 9900000
Bond:   1   1         1.18807e-06     2000
Angle:  1   109.47    8.57789e-05     1000
   9900000   56.021819     -461.33027      0             -384.28914     -3.1531119    
SHAKE stats (type/ave/delta/count) on step 9910000
Bond:   1   1         1.41991e-06     2000
Angle:  1   109.47    0.000113812     1000
   9910000   55.560297     -457.33796      0             -380.93151     -0.61427261   
SHAKE stats (type/ave/delta/count) on step 9920000
Bond:   1   1         1.27309e-06     2000
Angle:  1   109.47    0.000110282     1000
   9920000   56.773879     -456.221        0             -378.14564     -4.6014174    
SHAKE stats (type/ave/delta/count) on step 9930000
Bond:   1   1         1.11328e-06     2000
Angle:  1   109.47    0.000101275     1000
   9930000   56.269291     -458.55082      0             -381.16936     -7.6358756    
SHAKE stats (type/ave/delta/count) on step 9940000
Bond:   1   1         1.11506e-06     2000
Angle:  1   109.47    0.000102306     1000
   9940000   56.383363     -462.00145      0             -384.46312     -6.3142559    
SHAKE stats (type/ave/delta/count) on step 9950000
Bond:   1   1         1.08804e-06     2000
Angle:  1   109.47    0.000101131     1000
   9950000   55.391751     -458.23315      0             -382.05849     -5.9058528    
SHAKE stats (type/ave/delta/count) on step 9960000
Bond:   1   1         2.00563e-06     2000
Angle:  1   109.47    0.000137412     1000
   9960000   56.191937     -462.01995      0             -384.74487     -8.1992815    
SHAKE stats (type/ave/delta/count) on step 9970000
Bond:   1   1         1.53393e-06     2000
Angle:  1   109.47    0.000106086     1000
   9970000   55.106553     -460.34407      0             -384.56161     -0.18520038   
SHAKE stats (type/ave/delta/count) on step 9980000
Bond:   1   1         1.63135e-06     2000
Angle:  1   109.47    0.000144463     1000
   9980000   56.516444     -462.29954      0             -384.5782      -3.0744998    
SHAKE stats (type/ave/delta/count) on step 9990000
Bond:   1   1         1.31136e-06     2000
Angle:  1   109.47    9.22666e-05     1000
   9990000   57.713563     -459.25373      0             -379.88611     -3.0280576    
SHAKE stats (type/ave/delta/count) on step 10000000
Bond:   1   1         1.09577e-06     2000
Angle:  1   109.47    9.17994e-05     1000
  10000000   54.731061     -459.84801      0             -384.58193     -0.19349601   
Loop time of 71650.6 on 256 procs for 10000000 steps with 11640 atoms

Performance: 12.059 ns/day, 1.990 hours/ns, 139.566 timesteps/s, 1.625 Matom-step/s
100.0% CPU use with 256 MPI tasks x 1 OpenMP threads

MPI task timing breakdown:
Section |  min time  |  avg time  |  max time  |%varavg| %total
---------------------------------------------------------------
Pair    | 1.0771     | 778.27     | 11297      |7965.0 |  1.09
Bond    | 0.86347    | 1.5919     | 3.457      |  36.4 |  0.00
Kspace  | 52332      | 62274      | 63284      | 832.0 | 86.91
Neigh   | 2887.5     | 2945.3     | 2978.1     |  57.5 |  4.11
Comm    | 29.957     | 621.22     | 2685.4     |3338.7 |  0.87
Output  | 0.33174    | 0.34461    | 0.34942    |   0.7 |  0.00
Modify  | 2325.6     | 4825.2     | 5612.8     |1190.9 |  6.73
Other   |            | 204.3      |            |       |  0.29

Nlocal:        45.4688 ave        1193 max           0 min
Histogram: 223 1 26 1 2 0 1 1 0 1
Nghost:        271.766 ave        2311 max           0 min
Histogram: 186 0 23 23 10 1 6 2 3 2
Neighs:         5034.7 ave      268199 max           0 min
Histogram: 250 1 1 1 1 0 1 0 0 1

Total # of neighbors = 1288882
Ave neighs/atom = 110.72869
Ave special neighs/atom = 0.51546392
Neighbor list builds = 473838
Dangerous builds = 0

write_restart nvt_equi.restart.*
System init for write_restart ...
PPPM initialization ...
  using 12-bit tables for long-range coulomb (src/kspace.cpp:342)
  G vector (1/distance) = 0.27466065
  grid = 72 72 72
  stencil order = 5
  estimated absolute RMS force accuracy = 0.00016054877
  estimated relative force accuracy = 1.1149495e-05
  using double precision KISS FFT
  3d grid and FFT values/proc = 4508 1800
Generated 0 of 3 mixed pair_coeff terms from geometric mixing rule
write_data nvt_equi_final.lammps-data pair ij
System init for write_data ...
PPPM initialization ...
  using 12-bit tables for long-range coulomb (src/kspace.cpp:342)
  G vector (1/distance) = 0.27466065
  grid = 72 72 72
  stencil order = 5
  estimated absolute RMS force accuracy = 0.00016054877
  estimated relative force accuracy = 1.1149495e-05
  using double precision KISS FFT
  3d grid and FFT values/proc = 4508 1800
Generated 0 of 3 mixed pair_coeff terms from geometric mixing rule

Total wall time: 19:54:52
