 DBCSR| CPU Multiplication driver                                           BLAS
 DBCSR| Multrec recursion limit                                              512
 DBCSR| Multiplication stack size                                           1000
 DBCSR| Maximum elements for images                                    UNLIMITED
 DBCSR| Multiplicative factor virtual images                                   1
 DBCSR| Use multiplication densification                                       T
 DBCSR| Multiplication size stacks                                             3
 DBCSR| Use memory pool for CPU allocation                                     F
 DBCSR| Number of 3D layers                                               SINGLE
 DBCSR| Use MPI memory allocation                                              F
 DBCSR| Use RMA algorithm                                                      F
 DBCSR| Use Communication thread                                               T
 DBCSR| Communication thread load                                             87
 DBCSR| MPI: My node id                                                        0
 DBCSR| MPI: Number of nodes                                                 128
 DBCSR| OMP: Current number of threads                                         1
 DBCSR| OMP: Max number of threads                                             1
 DBCSR| Split modifier for TAS multiplication algorithm                  1.0E+00


  **** **** ******  **  PROGRAM STARTED AT               2025-10-22 11:40:18.860
 ***** ** ***  *** **   PROGRAM STARTED ON                             nid004056
 **    ****   ******    PROGRAM STARTED BY                            xr223_ukcp
 ***** **    ** ** **   PROGRAM PROCESS ID                                134700
  **** **  *******  **  PROGRAM STARTED IN /mnt/lustre/a2fs-work3/work/e89/e89/x
                                           r223_ukcp/BINDING-ENERGY-DARREN/bindi
                                           ng-energy/1-leg/s+1.00/d+4.00

 CP2K| version string:                                          CP2K version 9.1
 CP2K| source code revision number:                                  git:d8d7100
 CP2K| cp2kflags: omp libint fftw3 libxc elpa parallel mpi3 scalapack plumed2 mk
 CP2K|            l
 CP2K| is freely available from                            https://www.cp2k.org/
 CP2K| Program compiled at                       Thu 08 Jun 2023 08:54:13 AM BST
 CP2K| Program compiled on                                                  ln03
 CP2K| Program compiled for                                              ARCHER2
 CP2K| Data directory path       /work/y07/shared/apps/core/cp2k/cp2k-9.1.0/data
 CP2K| Input file name                                              cp2k_sub.inp

 GLOBAL| Force Environment number                                              1
 GLOBAL| Basis set file name                                      GTH_BASIS_SETS
 GLOBAL| Potential file name                                           POTENTIAL
 GLOBAL| MM Potential file name                                     MM_POTENTIAL
 GLOBAL| Coordinate file name                                           init.pdb
 GLOBAL| Method name                                                        CP2K
 GLOBAL| Project name                                                    MAT-H2O
 GLOBAL| Run type                                                         ENERGY
 GLOBAL| FFT library                                                       FFTW3
 GLOBAL| Diagonalization library                                            ELPA
 GLOBAL| Minimum number of eigenvectors for ELPA usage                        16
 GLOBAL| Orthonormality check for eigenvectors                          DISABLED
 GLOBAL| Matrix multiplication library                                 ScaLAPACK
 GLOBAL| All-to-all communication in single precision                          F
 GLOBAL| FFTs using library dependent lengths                                  F
 GLOBAL| Grid backend                                                       AUTO
 GLOBAL| Global print level                                                  LOW
 GLOBAL| MPI I/O enabled                                                       T
 GLOBAL| Total number of message passing processes                           128
 GLOBAL| Number of threads for this process                                    1
 GLOBAL| This output is from process                                           0
 GLOBAL| Stack size for threads created by OpenMP (OMP_STACKSIZE)        default
 GLOBAL| CPU model name                          AMD EPYC 7742 64-Core Processor
 GLOBAL| CPUID                                                              1002

 MEMORY| system memory details [Kb]
 MEMORY|                        rank 0           min           max       average
 MEMORY| MemTotal            263266864     263266864     263266864     263266864
 MEMORY| MemFree             241501008     241501008     241501008     241501008
 MEMORY| Buffers                181808        181808        181808        181808
 MEMORY| Cached                1344796       1344796       1345208       1344950
 MEMORY| Slab                  3301532       3301532       3301532       3301532
 MEMORY| SReclaimable           954764        954764        954764        954764
 MEMORY| MemLikelyFree       243982376     243982376     243982788     243982530


 *******************************************************************************
 *******************************************************************************
 **                                                                           **
 **     #####                         ##              ##                      **
 **    ##   ##            ##          ##              ##                      **
 **   ##     ##                       ##            ######                    **
 **   ##     ##  ##   ##  ##   #####  ##  ##   ####   ##    #####    #####    **
 **   ##     ##  ##   ##  ##  ##      ## ##   ##      ##   ##   ##  ##   ##   **
 **   ##  ## ##  ##   ##  ##  ##      ####     ###    ##   ######   ######    **
 **    ##  ###   ##   ##  ##  ##      ## ##      ##   ##   ##       ##        **
 **     #######   #####   ##   #####  ##  ##  ####    ##    #####   ##        **
 **           ##                                                    ##        **
 **                                                                           **
 **                                                ... make the atoms dance   **
 **                                                                           **
 **            Copyright (C) by CP2K developers group (2000-2021)             **
 **                      J. Chem. Phys. 152, 194103 (2020)                    **
 **                                                                           **
 *******************************************************************************


 TOTAL NUMBERS AND MAXIMUM NUMBERS

  Total number of            - Atomic kinds:                                   3
                             - Atoms:                                         67
                             - Shell sets:                                    70
                             - Shells:                                       338
                             - Primitive Cartesian functions:                341
                             - Cartesian basis functions:                    938
                             - Spherical basis functions:                    872

  Maximum angular momentum of- Orbital basis functions:                        2
                             - Local part of the GTH pseudopotential:          2
                             - Non-local part of the GTH pseudopotential:      0


 SCF PARAMETERS         Density guess:                                   RESTART
                        --------------------------------------------------------
                        max_scf:                                              20
                        max_scf_history:                                       0
                        max_diis:                                              4
                        --------------------------------------------------------
                        eps_scf:                                        5.00E-07
                        eps_scf_history:                                0.00E+00
                        eps_diis:                                       1.00E-01
                        eps_eigval:                                     1.00E-05
                        --------------------------------------------------------
                        level_shift [a.u.]:                                 0.00
                        added MOs                                        20    0
                        --------------------------------------------------------
                        Mixing method:                            BROYDEN_MIXING
                                                charge density mixing in g-space
                        --------------------------------------------------------
                        Smear method:                                FERMI_DIRAC
                        Electronic temperature [K]:                        300.0
                        Electronic temperature [a.u.]:                  9.50E-04
                        Accuracy threshold:                             1.00E-10
                        --------------------------------------------------------
                        Outer loop SCF in use 
                        No variables optimised in outer loop
                        eps_scf                                         5.00E-07
                        max_scf                                               20
                        No outer loop optimization
                        step_size                                       5.00E-01

 Number of electrons:                                                        264
 Number of occupied orbitals:                                                132
 Number of molecular orbitals:                                               152

 Number of orbital functions:                                                872
 Number of independent orbital functions:                                    872

 Extrapolation method: initial_guess

 *** WARNING in qs_initial_guess.F:309 :: User requested to restart the    ***
 *** wavefunction from the file named: MAT-H2O-RESTART.wfn. This file does ***
 *** not exist. Please check the existence of the file or change properly  ***
 *** the value of the keyword WFN_RESTART_FILE_NAME. Calculation continues ***
 *** using ATOMIC GUESS.                                                   ***



 SCF WAVEFUNCTION OPTIMIZATION

  Step     Update method      Time    Convergence         Total energy    Change
  ------------------------------------------------------------------------------
     1 NoMix/Diag. 0.40E+00    0.6     1.20912331      -379.0578596020 -3.79E+02
     2 Broy./Diag. 0.40E+00    0.7     0.33186770      -370.0179299450  9.04E+00
     3 Broy./Diag. 0.40E+00    0.8     0.02138272      -378.8144580306 -8.80E+00
     4 Broy./Diag. 0.40E+00    0.8     0.01031398      -382.3647027114 -3.55E+00
     5 Broy./Diag. 0.40E+00    0.8     0.00322430      -382.5492672676 -1.85E-01
     6 Broy./Diag. 0.40E+00    0.8     0.00112108      -382.2440975127  3.05E-01
     7 Broy./Diag. 0.40E+00    0.8     0.00111982      -382.1982371933  4.59E-02
     8 Broy./Diag. 0.40E+00    0.8     0.00199825      -382.2014688261 -3.23E-03
     9 Broy./Diag. 0.40E+00    0.8     0.00150942      -382.1963102006  5.16E-03
    10 Broy./Diag. 0.40E+00    0.8     0.00044594      -382.1977486767 -1.44E-03
    11 Broy./Diag. 0.40E+00    0.8     0.00077786      -382.1958842565  1.86E-03
    12 Broy./Diag. 0.40E+00    0.8     0.00014934      -382.1965875686 -7.03E-04
    13 Broy./Diag. 0.40E+00    0.8     0.00007043      -382.1971338728 -5.46E-04
    14 Broy./Diag. 0.40E+00    0.8     0.00008145      -382.1966195665  5.14E-04
    15 Broy./Diag. 0.40E+00    0.8     0.00003945      -382.1964939460  1.26E-04
    16 Broy./Diag. 0.40E+00    0.8     0.00002016      -382.1966054476 -1.12E-04
    17 Broy./Diag. 0.40E+00    0.8     0.00000401      -382.1966574838 -5.20E-05
    18 Broy./Diag. 0.40E+00    0.8     0.00000439      -382.1966483107  9.17E-06
    19 Broy./Diag. 0.40E+00    0.8     0.00000063      -382.1966572057 -8.90E-06
    20 Broy./Diag. 0.40E+00    0.8     0.00000157      -382.1966703952 -1.32E-05

  Leaving inner SCF loop after reaching    20 steps.


  Electronic density on regular grids:       -264.0000000000        0.0000000000
  Core density on regular grids:              263.9999999998       -0.0000000002
  Total charge density on r-space grids:       -0.0000000002
  Total charge density g-space grids:          -0.0000000002

  Overlap energy of the core charge distribution:               0.00000793211145
  Self energy of the core charge distribution:               -897.78766230971098
  Core Hamiltonian energy:                                    278.64182750855360
  Hartree energy:                                             353.03354307500570
  Exchange-correlation energy:                               -115.90901902376592
  Dispersion energy:                                           -0.17536757737728
  Electronic entropic energy:                                  -0.00000000000000
  Fermi energy:                                                -0.06875318884419

  Total energy:                                              -382.19667039518356

  outer SCF iter =    1 RMS gradient =   0.16E-05 energy =       -382.1966703952
     1 Broy./Diag. 0.40E+00    1.5     0.00000081      -382.1966830746 -1.27E-05
     2 Broy./Diag. 0.40E+00    0.8     0.00000107      -382.1966832418 -1.67E-07
     3 Broy./Diag. 0.40E+00    0.8     0.00000052      -382.1966721259  1.11E-05
     4 Broy./Diag. 0.40E+00    0.8     0.00000024      -382.1966733277 -1.20E-06

  *** SCF run converged in     4 steps ***


  Electronic density on regular grids:       -264.0000000000        0.0000000000
  Core density on regular grids:              263.9999999998       -0.0000000002
  Total charge density on r-space grids:       -0.0000000002
  Total charge density g-space grids:          -0.0000000002

  Overlap energy of the core charge distribution:               0.00000793211145
  Self energy of the core charge distribution:               -897.78766230971098
  Core Hamiltonian energy:                                    278.64181967450571
  Hartree energy:                                             353.03355031845780
  Exchange-correlation energy:                               -115.90902136568904
  Dispersion energy:                                           -0.17536757737728
  Electronic entropic energy:                                  -0.00000000000000
  Fermi energy:                                                -0.06875274309905

  Total energy:                                              -382.19667332770246

  outer SCF iter =    2 RMS gradient =   0.24E-06 energy =       -382.1966733277
  outer SCF loop converged in   2 iterations or   24 steps


 ENERGY| Total FORCE_EVAL ( QS ) energy [a.u.]:             -382.196673327702456

 -------------------------------------------------------------------------------
 -                                                                             -
 -                                DBCSR STATISTICS                             -
 -                                                                             -
 -------------------------------------------------------------------------------
 COUNTER                                    TOTAL       BLAS       SMM       ACC
 flops     9 x    22 x    24               228096     100.0%      0.0%      0.0%
 flops    22 x     9 x    24               228096     100.0%      0.0%      0.0%
 flops     9 x     9 x    24               279936     100.0%      0.0%      0.0%
 flops    22 x    22 x    24               557568     100.0%      0.0%      0.0%
 flops     9 x    22 x    32              1216512     100.0%      0.0%      0.0%
 flops    22 x     9 x    32              1216512     100.0%      0.0%      0.0%
 flops     9 x     9 x    32              1492992     100.0%      0.0%      0.0%
 flops    22 x    22 x    32              2973696     100.0%      0.0%      0.0%
 flops     9 x    13 x    24              8626176     100.0%      0.0%      0.0%
 flops    13 x     9 x    24              8626176     100.0%      0.0%      0.0%
 flops    22 x    13 x    24             10543104     100.0%      0.0%      0.0%
 flops    13 x    22 x    24             10543104     100.0%      0.0%      0.0%
 flops     9 x    13 x    32             46006272     100.0%      0.0%      0.0%
 flops    13 x     9 x    32             46006272     100.0%      0.0%      0.0%
 flops    22 x    13 x    32             56229888     100.0%      0.0%      0.0%
 flops    13 x    22 x    32             56229888     100.0%      0.0%      0.0%
 flops    13 x    13 x    24            404951040     100.0%      0.0%      0.0%
 flops    13 x    13 x    32           2159738880     100.0%      0.0%      0.0%
 flops inhomo. stacks                           0       0.0%      0.0%      0.0%
 flops total                         2.815694E+09     100.0%      0.0%      0.0%
 flops max/rank                     36.801024E+06     100.0%      0.0%      0.0%
 matmuls inhomo. stacks                         0       0.0%      0.0%      0.0%
 matmuls total                             273360     100.0%      0.0%      0.0%
 number of processed stacks                 24600     100.0%      0.0%      0.0%
 average stack size                                    11.1       0.0       0.0
 marketing flops                     4.817793E+09
 -------------------------------------------------------------------------------
 # multiplications                             24
 max memory usage/rank             341.864448E+06
 # max total images/rank                        2
 # max 3D layers                                1
 # MPI messages exchanged                   89088
 MPI messages size (bytes):
  total size                       559.865856E+06
  min size                           0.000000E+00
  max size                          29.952000E+03
  average size                       6.284414E+03
 MPI breakdown and total messages size (bytes):
             size <=      128               61248                        0
       128 < size <=     8192                   0                        0
      8192 < size <=    32768               27840                559865856
     32768 < size <=   131072                   0                        0
    131072 < size <=  4194304                   0                        0
   4194304 < size <= 16777216                   0                        0
  16777216 < size                               0                        0
 -------------------------------------------------------------------------------

 *** WARNING in dbcsr_mm.F:294 :: Using a non-square number of MPI ranks ***
 *** might lead to poor performance. Used ranks: 128 Suggested: 121 256  ***

 -------------------------------------------------------------------------------
 -                                                                             -
 -                      DBCSR MESSAGE PASSING PERFORMANCE                      -
 -                                                                             -
 -------------------------------------------------------------------------------
 ROUTINE             CALLS      AVE VOLUME [Bytes]
 MP_Bcast               19                     12.
 MP_Allreduce          224                     12.
 MP_Alltoall           684                  51860.
 MP_ISend             1536                   3590.
 MP_IRecv             1536                   2683.
 -------------------------------------------------------------------------------

 -------------------------------------------------------------------------------
 -                                                                             -
 -                                GRID STATISTICS                              -
 -                                                                             -
 -------------------------------------------------------------------------------
 LP    KERNEL             BACKEND                              COUNT     PERCENT
 4     collocate ortho    REF                                1176450      47.11%
 4     integrate ortho    REF                                1129392      45.23%
 2     collocate ortho    REF                                  48575       1.95%
 2     integrate ortho    REF                                  46632       1.87%
 3     collocate ortho    REF                                  39750       1.59%
 3     integrate ortho    REF                                  38160       1.53%
 0     collocate general  REF                                   8576       0.34%
 1     collocate ortho    REF                                   2850       0.11%
 1     integrate ortho    REF                                   2736       0.11%
 0     collocate ortho    REF                                   2000       0.08%
 0     integrate ortho    REF                                   1920       0.08%
 -------------------------------------------------------------------------------

 MEMORY| Estimated peak process memory [MiB]                                 327

 -------------------------------------------------------------------------------
 -                                                                             -
 -                         MESSAGE PASSING PERFORMANCE                         -
 -                                                                             -
 -------------------------------------------------------------------------------

 ROUTINE             CALLS      AVE VOLUME [Bytes]
 MP_Group                5
 MP_Bcast              185                3514197.
 MP_Allreduce          645                   1529.
 MP_Sync                53
 MP_Alltoall           382                3365062.
 MP_SendRecv           288                 409600.
 MP_ISendRecv        18669                  24960.
 MP_Wait             21243
 MP_comm_split          24
 MP_ISend             2178                 365999.
 MP_IRecv             2178                 366099.
 MP_Recv                15                  69760.
 -------------------------------------------------------------------------------


 -------------------------------------------------------------------------------
 -                                                                             -
 -                           R E F E R E N C E S                               -
 -                                                                             -
 -------------------------------------------------------------------------------
 
 CP2K version 9.1, the CP2K developers group (2021).
 CP2K is freely available from https://www.cp2k.org/ .

 Kuehne,Thomas D.; Iannuzzi,Marcella; Del Ben,Mauro;
 Rybkin,Vladimir V.; Seewald,Patrick; Stein,Frederick; Laino,Teodoro;
 Khaliullin,Rustam Z.; Schuett,Ole; Schiffmann,Florian; Golze,Dorothea;
 Wilhelm,Jan; Chulkov,Sergey; Bani-Hashemian,Mohammad Hossein;
 Weber,Valery; Borstnik,Urban; Taillefumier,Mathieu;
 Jakobovits,Alice Shoshana; Lazzaro,Alfio; Pabst,Hans; Mueller,Tiziano;
 Schade,Robert; Guidon,Manuel; Andermatt,Samuel; Holmberg,Nico;
 Schenter,Gregory K.; Hehn,Anna; Bussy,Augustin; Belleflamme,Fabian;
 Tabacchi,Gloria; Gloess,Andreas; Lass,Michael; Bethune,Iain;
 Mundy,Christopher J.; Plessl,Christian; Watkins,Matt;
 VandeVondele,Joost; Krack,Matthias; Hutter,Juerg. 
 The Journal of Chemical Physics, 152 (19), (2020). 
 CP2K: An electronic structure and molecular dynamics software package -
 Quickstep: Efficient and accurate electronic structure calculations.
 https://doi.org/10.1063/5.0007045

 Goerigk, Lars; Hansen, Andreas; Bauer, Christoph; Ehrlich, Stephan;
 Najibi, Asim; Grimme, Stefan. , 19 (48), (2017). 
 A look at the density functional theory zoo with the advanced GMTKN55 database
 for general main group thermochemistry, kinetics and noncovalent interactions.
 https://doi.org/10.1039/C7CP04913G

 Schuett, Ole; Messmer, Peter; Hutter, Juerg; VandeVondele, Joost. 
 Electronic Structure Calculations on Graphics Processing Units, John
 Wiley & Sons, Ltd, 173-190 (2016). 
 GPU-Accelerated Sparse Matrix-Matrix Multiplication for
 Linear Scaling Density Functional Theory.
 https://doi.org/10.1002/9781118670712.ch8

 Borstnik, U; VandeVondele, J; Weber, V; Hutter, J. 
 PARALLEL COMPUTING, 40 (5-6), 47-58 (2014). 
 Sparse matrix multiplication: The distributed block-compressed sparse
 row library.
 https://doi.org/10.1016/j.parco.2014.03.012

 Hutter, J; Iannuzzi, M; Schiffmann, F; VandeVondele, J. 
 WIREs Comput Mol Sci., 4 (1), 15-25 (2014). 
 CP2K: atomistic simulations of condensed matter systems.
 https://doi.org/10.1002/wcms.1159

 Marek, A; Blum, V; Johanni, R; Havu, V; Lang, B; Auckenthaler, T;
 Heinecke, A; Bungartz, H; Lederer, H. 
 Journal of Physics: Condensed Matter, 26 (21), (2014). 
 The ELPA library: scalable parallel eigenvalue solutions for
 electronic structure
 theory and computational science.
 https://doi.org/10.1088/0953-8984/26/21/213201

 Grimme, S; Ehrlich, S; Goerigk, L. 
 JOURNAL OF COMPUTATIONAL CHEMISTRY, 32, 1456 (2011). 
 Effect of the damping function in dispersion corrected density functional theory.
 https://doi.org/10.1002/jcc.21759

 Grimme, S; Antony, J; Ehrlich, S; Krieg, H. 
 JOURNAL OF CHEMICAL PHYSICS, 132 (15), 154104 (2010). 
 A consistent and accurate ab initio parametrization of density
 functional dispersion correction (DFT-D) for the 94 elements H-Pu.
 https://doi.org/10.1063/1.3382344

 VandeVondele, J; Hutter, J. 
 JOURNAL OF CHEMICAL PHYSICS, 127 (11), 114105 (2007). 
 Gaussian basis sets for accurate calculations on molecular systems in
 gas and condensed phases.
 https://doi.org/10.1063/1.2770708

 Krack, M. 
 THEORETICAL CHEMISTRY ACCOUNTS, 114 (1-3), 145-152 (2005). 
 Pseudopotentials for H to Kr optimized for gradient-corrected
 exchange-correlation functionals.
 https://doi.org/10.1007/s00214-005-0655-y

 VandeVondele, J; Krack, M; Mohamed, F; Parrinello, M; Chassaing, T;
 Hutter, J. COMPUTER PHYSICS COMMUNICATIONS, 167 (2), 103-128 (2005). 
 QUICKSTEP: Fast and accurate density functional calculations using a
 mixed Gaussian and plane waves approach.
 https://doi.org/10.1016/j.cpc.2004.12.014

 Frigo, M; Johnson, SG. 
 PROCEEDINGS OF THE IEEE, 93 (2), 216-231 (2005). 
 The design and implementation of FFTW3.
 https://doi.org/10.1109/JPROC.2004.840301

 Hartwigsen, C; Goedecker, S; Hutter, J. 
 PHYSICAL REVIEW B, 58 (7), 3641-3662 (1998). 
 Relativistic separable dual-space Gaussian pseudopotentials from H to Rn.
 https://doi.org/10.1103/PhysRevB.58.3641

 Zhang, YK; Yang, WT. 
 PHYSICAL REVIEW LETTERS, 80 (4), 890-890 (1998). 
 Comment on Generalized gradient approximation made simple.
 https://doi.org/10.1103/PhysRevLett.80.890

 Lippert, G; Hutter, J; Parrinello, M. 
 MOLECULAR PHYSICS, 92 (3), 477-487 (1997). 
 A hybrid Gaussian and plane wave density functional scheme.
 https://doi.org/10.1080/002689797170220

 Perdew, JP; Burke, K; Ernzerhof, M. 
 PHYSICAL REVIEW LETTERS, 77 (18), 3865-3868 (1996). 
 Generalized gradient approximation made simple.
 https://doi.org/10.1103/PhysRevLett.77.3865

 Goedecker, S; Teter, M; Hutter, J. 
 PHYSICAL REVIEW B, 54 (3), 1703-1710 (1996). 
 Separable dual-space Gaussian pseudopotentials.
 https://doi.org/10.1103/PhysRevB.54.1703


 -------------------------------------------------------------------------------
 -                                                                             -
 -                                T I M I N G                                  -
 -                                                                             -
 -------------------------------------------------------------------------------
 SUBROUTINE                       CALLS  ASD         SELF TIME        TOTAL TIME
                                MAXIMUM       AVERAGE  MAXIMUM  AVERAGE  MAXIMUM
 CP2K                                 1  1.0    0.111    0.123   20.592   20.598
 qs_energies                          1  2.0    0.005    0.009   19.934   19.943
 scf_env_do_scf                       1  3.0    0.002    0.005   19.056   19.062
 scf_env_do_scf_inner_loop           24  4.0    0.008    0.011   19.053   19.060
 qs_ks_update_qs_env                 24  5.0    0.001    0.001    8.283    8.289
 rebuild_ks_matrix                   24  6.0    0.003    0.004    8.278    8.282
 qs_ks_build_kohn_sham_matrix        24  7.0    0.011    0.017    8.276    8.280
 rs_pw_transfer                     246  9.5    0.005    0.007    5.836    6.046
 qs_rho_update_rho                   25  5.0    0.001    0.001    5.894    5.897
 calculate_rho_elec                  25  6.0    0.022    0.024    5.894    5.897
 density_rs2pw                       25  7.0    0.004    0.005    4.439    4.653
 sum_up_and_integrate                24  8.0    0.026    0.037    4.314    4.319
 integrate_v_rspace                  24  9.0    0.001    0.003    4.288    4.301
 pw_transfer                        365  9.0    0.070    0.083    3.890    4.063
 potential_pw2rs                     24 10.0    0.003    0.003    3.912    3.923
 fft_wrap_pw1pw2                    317 10.0    0.004    0.005    3.727    3.886
 fft_wrap_pw1pw2_530                121 10.2    0.325    0.389    3.419    3.566
 fft3d_ps                           317 12.0    1.565    1.711    2.871    3.026
 qs_vxc_create                       24  8.0    0.004    0.006    2.734    2.824
 xc_vxc_pw_create                    24  9.0    0.070    0.083    2.730    2.821
 gspace_mixing                       22  5.0    0.020    0.023    2.632    2.634
 qs_scf_new_mos                      24  5.0    0.003    0.005    2.518    2.537
 eigensolver                         24  6.0    0.004    0.005    2.342    2.344
 xc_rho_set_and_dset_create          24 10.0    0.044    0.063    1.901    2.114
 rs_pw_transfer_RS2PW_530            26  8.9    1.169    1.354    1.923    2.110
 cp_fm_diag_elpa                     24  7.0    0.000    0.000    2.087    2.095
 cp_fm_redistribute_end              24  8.0    1.800    2.060    1.802    2.061
 cp_fm_diag_elpa_base                24  8.0    0.251    2.018    0.255    2.042
 mp_waitany                        2178 11.4    1.451    2.035    1.451    2.035
 rs_pw_transfer_PW2RS_530            24 12.0    1.268    1.336    1.960    2.012
 broyden_mixing                      22  6.0    1.929    1.967    1.971    1.989
 pw_nn_compose_r                    144 10.5    0.770    0.815    1.123    1.687
 grid_collocate_task_list            25  7.0    1.365    1.464    1.365    1.464
 xc_functional_eval                  24 11.0    0.000    0.001    1.197    1.400
 pbe_lda_eval                        24 12.0    1.197    1.399    1.197    1.399
 mp_alltoall_z22v                   317 14.0    0.976    1.320    0.976    1.320
 mp_sendrecv_dm2                    288 11.5    0.353    0.984    0.353    0.984
 mp_waitall_1                     21753 11.5    0.795    0.908    0.795    0.908
 yz_to_x                            150 12.5    0.120    0.165    0.580    0.824
 x_to_yz                            167 13.5    0.199    0.235    0.715    0.785
 mp_sum_d                           617  3.7    0.336    0.657    0.336    0.657
 init_scf_run                         1  3.0    0.002    0.003    0.573    0.576
 rs_pw_transfer_PW2RS_180            24 12.0    0.221    0.242    0.473    0.551
 rs_pw_transfer_PW2RS_60             24 12.0    0.124    0.190    0.395    0.437
 pw_poisson_solve                    24  8.0    0.165    0.175    0.422    0.424
 -------------------------------------------------------------------------------

 The number of warnings for this run is : 2
 
 -------------------------------------------------------------------------------
  **** **** ******  **  PROGRAM ENDED AT                 2025-10-22 11:40:45.213
 ***** ** ***  *** **   PROGRAM RAN ON                                 nid004056
 **    ****   ******    PROGRAM RAN BY                                xr223_ukcp
 ***** **    ** ** **   PROGRAM PROCESS ID                                134700
  **** **  *******  **  PROGRAM STOPPED IN /mnt/lustre/a2fs-work3/work/e89/e89/x
                                           r223_ukcp/BINDING-ENERGY-DARREN/bindi
                                           ng-energy/1-leg/s+1.00/d+4.00
 DBCSR| CPU Multiplication driver                                           BLAS
 DBCSR| Multrec recursion limit                                              512
 DBCSR| Multiplication stack size                                           1000
 DBCSR| Maximum elements for images                                    UNLIMITED
 DBCSR| Multiplicative factor virtual images                                   1
 DBCSR| Use multiplication densification                                       T
 DBCSR| Multiplication size stacks                                             3
 DBCSR| Use memory pool for CPU allocation                                     F
 DBCSR| Number of 3D layers                                               SINGLE
 DBCSR| Use MPI memory allocation                                              F
 DBCSR| Use RMA algorithm                                                      F
 DBCSR| Use Communication thread                                               T
 DBCSR| Communication thread load                                             87
 DBCSR| MPI: My node id                                                        0
 DBCSR| MPI: Number of nodes                                                 128
 DBCSR| OMP: Current number of threads                                         1
 DBCSR| OMP: Max number of threads                                             1
 DBCSR| Split modifier for TAS multiplication algorithm                  1.0E+00


  **** **** ******  **  PROGRAM STARTED AT               2025-10-22 11:41:10.987
 ***** ** ***  *** **   PROGRAM STARTED ON                             nid004858
 **    ****   ******    PROGRAM STARTED BY                            xr223_ukcp
 ***** **    ** ** **   PROGRAM PROCESS ID                                248538
  **** **  *******  **  PROGRAM STARTED IN /mnt/lustre/a2fs-work3/work/e89/e89/x
                                           r223_ukcp/BINDING-ENERGY-DARREN/bindi
                                           ng-energy/1-leg/s+1.00/d+4.00

 CP2K| version string:                                          CP2K version 9.1
 CP2K| source code revision number:                                  git:d8d7100
 CP2K| cp2kflags: omp libint fftw3 libxc elpa parallel mpi3 scalapack plumed2 mk
 CP2K|            l
 CP2K| is freely available from                            https://www.cp2k.org/
 CP2K| Program compiled at                       Thu 08 Jun 2023 08:54:13 AM BST
 CP2K| Program compiled on                                                  ln03
 CP2K| Program compiled for                                              ARCHER2
 CP2K| Data directory path       /work/y07/shared/apps/core/cp2k/cp2k-9.1.0/data
 CP2K| Input file name                                              cp2k_sub.inp

 GLOBAL| Force Environment number                                              1
 GLOBAL| Basis set file name                                      GTH_BASIS_SETS
 GLOBAL| Potential file name                                           POTENTIAL
 GLOBAL| MM Potential file name                                     MM_POTENTIAL
 GLOBAL| Coordinate file name                                           init.pdb
 GLOBAL| Method name                                                        CP2K
 GLOBAL| Project name                                                    MAT-H2O
 GLOBAL| Run type                                                         ENERGY
 GLOBAL| FFT library                                                       FFTW3
 GLOBAL| Diagonalization library                                            ELPA
 GLOBAL| Minimum number of eigenvectors for ELPA usage                        16
 GLOBAL| Orthonormality check for eigenvectors                          DISABLED
 GLOBAL| Matrix multiplication library                                 ScaLAPACK
 GLOBAL| All-to-all communication in single precision                          F
 GLOBAL| FFTs using library dependent lengths                                  F
 GLOBAL| Grid backend                                                       AUTO
 GLOBAL| Global print level                                                  LOW
 GLOBAL| MPI I/O enabled                                                       T
 GLOBAL| Total number of message passing processes                           128
 GLOBAL| Number of threads for this process                                    1
 GLOBAL| This output is from process                                           0
 GLOBAL| Stack size for threads created by OpenMP (OMP_STACKSIZE)        default
 GLOBAL| CPU model name                          AMD EPYC 7742 64-Core Processor
 GLOBAL| CPUID                                                              1002

 MEMORY| system memory details [Kb]
 MEMORY|                        rank 0           min           max       average
 MEMORY| MemTotal            263266848     263266848     263266848     263266848
 MEMORY| MemFree             239765144     239765144     239788940     239781061
 MEMORY| Buffers                179640        179640        179640        179640
 MEMORY| Cached                1417316       1389600       1424912       1419697
 MEMORY| Slab                  4515996       4515904       4516172       4516035
 MEMORY| SReclaimable          1763980       1763980       1764268       1764016
 MEMORY| MemLikelyFree       243126080     243098652     243157472     243144414


 *******************************************************************************
 *******************************************************************************
 **                                                                           **
 **     #####                         ##              ##                      **
 **    ##   ##            ##          ##              ##                      **
 **   ##     ##                       ##            ######                    **
 **   ##     ##  ##   ##  ##   #####  ##  ##   ####   ##    #####    #####    **
 **   ##     ##  ##   ##  ##  ##      ## ##   ##      ##   ##   ##  ##   ##   **
 **   ##  ## ##  ##   ##  ##  ##      ####     ###    ##   ######   ######    **
 **    ##  ###   ##   ##  ##  ##      ## ##      ##   ##   ##       ##        **
 **     #######   #####   ##   #####  ##  ##  ####    ##    #####   ##        **
 **           ##                                                    ##        **
 **                                                                           **
 **                                                ... make the atoms dance   **
 **                                                                           **
 **            Copyright (C) by CP2K developers group (2000-2021)             **
 **                      J. Chem. Phys. 152, 194103 (2020)                    **
 **                                                                           **
 *******************************************************************************


 TOTAL NUMBERS AND MAXIMUM NUMBERS

  Total number of            - Atomic kinds:                                   3
                             - Atoms:                                         67
                             - Shell sets:                                    70
                             - Shells:                                       338
                             - Primitive Cartesian functions:                341
                             - Cartesian basis functions:                    938
                             - Spherical basis functions:                    872

  Maximum angular momentum of- Orbital basis functions:                        2
                             - Local part of the GTH pseudopotential:          2
                             - Non-local part of the GTH pseudopotential:      0


 SCF PARAMETERS         Density guess:                                   RESTART
                        --------------------------------------------------------
                        max_scf:                                              20
                        max_scf_history:                                       0
                        max_diis:                                              4
                        --------------------------------------------------------
                        eps_scf:                                        5.00E-07
                        eps_scf_history:                                0.00E+00
                        eps_diis:                                       1.00E-01
                        eps_eigval:                                     1.00E-05
                        --------------------------------------------------------
                        level_shift [a.u.]:                                 0.00
                        added MOs                                        20    0
                        --------------------------------------------------------
                        Mixing method:                            BROYDEN_MIXING
                                                charge density mixing in g-space
                        --------------------------------------------------------
                        Smear method:                                FERMI_DIRAC
                        Electronic temperature [K]:                        300.0
                        Electronic temperature [a.u.]:                  9.50E-04
                        Accuracy threshold:                             1.00E-10
                        --------------------------------------------------------
                        Outer loop SCF in use 
                        No variables optimised in outer loop
                        eps_scf                                         5.00E-07
                        max_scf                                               20
                        No outer loop optimization
                        step_size                                       5.00E-01

 Number of electrons:                                                        264
 Number of occupied orbitals:                                                132
 Number of molecular orbitals:                                               152

 Number of orbital functions:                                                872
 Number of independent orbital functions:                                    872

 Extrapolation method: initial_guess


 SCF WAVEFUNCTION OPTIMIZATION

  Step     Update method      Time    Convergence         Total energy    Change
  ------------------------------------------------------------------------------
     1 NoMix/Diag. 0.40E+00    0.5     0.00000062      -382.1966830746 -3.82E+02
     2 Broy./Diag. 0.40E+00    0.7     0.00000032      -382.1966860732 -3.00E-06

  *** SCF run converged in     2 steps ***


  Electronic density on regular grids:       -264.0000000000        0.0000000000
  Core density on regular grids:              263.9999999998       -0.0000000002
  Total charge density on r-space grids:       -0.0000000002
  Total charge density g-space grids:          -0.0000000002

  Overlap energy of the core charge distribution:               0.00000793211145
  Self energy of the core charge distribution:               -897.78766230971098
  Core Hamiltonian energy:                                    278.64181360138952
  Hartree energy:                                             353.03354602107083
  Exchange-correlation energy:                               -115.90902374069334
  Dispersion energy:                                           -0.17536757737728
  Electronic entropic energy:                                  -0.00000000000000
  Fermi energy:                                                -0.06875245756576

  Total energy:                                              -382.19668607320978

  outer SCF iter =    1 RMS gradient =   0.32E-06 energy =       -382.1966860732
  outer SCF loop converged in   1 iterations or    2 steps


 ENERGY| Total FORCE_EVAL ( QS ) energy [a.u.]:             -382.196686073209776

 -------------------------------------------------------------------------------
 -                                                                             -
 -                                DBCSR STATISTICS                             -
 -                                                                             -
 -------------------------------------------------------------------------------
 COUNTER                                    TOTAL       BLAS       SMM       ACC
 flops     9 x    24 x     9                15552     100.0%      0.0%      0.0%
 flops     9 x    24 x    22                19008     100.0%      0.0%      0.0%
 flops    22 x    24 x     9                19008     100.0%      0.0%      0.0%
 flops    22 x    24 x    22                23232     100.0%      0.0%      0.0%
 flops     9 x    22 x    24                28512     100.0%      0.0%      0.0%
 flops    22 x     9 x    24                28512     100.0%      0.0%      0.0%
 flops     9 x     9 x    24                34992     100.0%      0.0%      0.0%
 flops    22 x    22 x    24                69696     100.0%      0.0%      0.0%
 flops     9 x    32 x     9                82944     100.0%      0.0%      0.0%
 flops    22 x    32 x     9               101376     100.0%      0.0%      0.0%
 flops     9 x    32 x    22               101376     100.0%      0.0%      0.0%
 flops    22 x    32 x    22               123904     100.0%      0.0%      0.0%
 flops     9 x    22 x    32               152064     100.0%      0.0%      0.0%
 flops    22 x     9 x    32               152064     100.0%      0.0%      0.0%
 flops     9 x     9 x    32               186624     100.0%      0.0%      0.0%
 flops    22 x    22 x    32               371712     100.0%      0.0%      0.0%
 flops     9 x    24 x    13               718848     100.0%      0.0%      0.0%
 flops    13 x    24 x     9               718848     100.0%      0.0%      0.0%
 flops    13 x    24 x    22               878592     100.0%      0.0%      0.0%
 flops    22 x    24 x    13               878592     100.0%      0.0%      0.0%
 flops     9 x    13 x    24              1078272     100.0%      0.0%      0.0%
 flops    13 x     9 x    24              1078272     100.0%      0.0%      0.0%
 flops    22 x    13 x    24              1317888     100.0%      0.0%      0.0%
 flops    13 x    22 x    24              1317888     100.0%      0.0%      0.0%
 flops    13 x    32 x     9              3833856     100.0%      0.0%      0.0%
 flops     9 x    32 x    13              3833856     100.0%      0.0%      0.0%
 flops    22 x    32 x    13              4685824     100.0%      0.0%      0.0%
 flops    13 x    32 x    22              4685824     100.0%      0.0%      0.0%
 flops     9 x    13 x    32              5750784     100.0%      0.0%      0.0%
 flops    13 x     9 x    32              5750784     100.0%      0.0%      0.0%
 flops    22 x    13 x    32              7028736     100.0%      0.0%      0.0%
 flops    13 x    22 x    32              7028736     100.0%      0.0%      0.0%
 flops    13 x    24 x    13             33226752     100.0%      0.0%      0.0%
 flops    13 x    13 x    24             50618880     100.0%      0.0%      0.0%
 flops    13 x    32 x    13            177209344     100.0%      0.0%      0.0%
 flops    13 x    13 x    32            269967360     100.0%      0.0%      0.0%
 flops inhomo. stacks                           0       0.0%      0.0%      0.0%
 flops total                       583.118512E+06     100.0%      0.0%      0.0%
 flops max/rank                     11.129664E+06     100.0%      0.0%      0.0%
 matmuls inhomo. stacks                         0       0.0%      0.0%      0.0%
 matmuls total                              56615     100.0%      0.0%      0.0%
 number of processed stacks                  4120     100.0%      0.0%      0.0%
 average stack size                                    13.7       0.0       0.0
 marketing flops                   833.380864E+06
 -------------------------------------------------------------------------------
 # multiplications                              4
 max memory usage/rank             302.407680E+06
 # max total images/rank                        2
 # max 3D layers                                1
 # MPI messages exchanged                   14848
 MPI messages size (bytes):
  total size                       168.651776E+06
  min size                           0.000000E+00
  max size                          60.840000E+03
  average size                      11.358552E+03
 MPI breakdown and total messages size (bytes):
             size <=      128                8888                        0
       128 < size <=     8192                   0                        0
      8192 < size <=    32768                4040                 77405696
     32768 < size <=   131072                1920                 91246080
    131072 < size <=  4194304                   0                        0
   4194304 < size <= 16777216                   0                        0
  16777216 < size                               0                        0
 -------------------------------------------------------------------------------

 *** WARNING in dbcsr_mm.F:294 :: Using a non-square number of MPI ranks ***
 *** might lead to poor performance. Used ranks: 128 Suggested: 121 256  ***

 -------------------------------------------------------------------------------
 -                                                                             -
 -                      DBCSR MESSAGE PASSING PERFORMANCE                      -
 -                                                                             -
 -------------------------------------------------------------------------------
 ROUTINE             CALLS      AVE VOLUME [Bytes]
 MP_Bcast               37                     12.
 MP_Allreduce          113                     22.
 MP_Alltoall           105                  50711.
 MP_ISend              256                   6473.
 MP_IRecv              256                   5801.
 -------------------------------------------------------------------------------

 -------------------------------------------------------------------------------
 -                                                                             -
 -                                GRID STATISTICS                              -
 -                                                                             -
 -------------------------------------------------------------------------------
 LP    KERNEL             BACKEND                              COUNT     PERCENT
 4     collocate ortho    REF                                 141174      53.78%
 4     integrate ortho    REF                                  94116      35.85%
 0     collocate general  REF                                   8576       3.27%
 2     collocate ortho    REF                                   5829       2.22%
 3     collocate ortho    REF                                   4770       1.82%
 2     integrate ortho    REF                                   3886       1.48%
 3     integrate ortho    REF                                   3180       1.21%
 1     collocate ortho    REF                                    342       0.13%
 0     collocate ortho    REF                                    240       0.09%
 1     integrate ortho    REF                                    228       0.09%
 0     integrate ortho    REF                                    160       0.06%
 -------------------------------------------------------------------------------

 MEMORY| Estimated peak process memory [MiB]                                 291

 -------------------------------------------------------------------------------
 -                                                                             -
 -                         MESSAGE PASSING PERFORMANCE                         -
 -                                                                             -
 -------------------------------------------------------------------------------

 ROUTINE             CALLS      AVE VOLUME [Bytes]
 MP_Group                5
 MP_Bcast              282                2309090.
 MP_Allreduce          348                   2796.
 MP_Sync                11
 MP_Alltoall            53                2416715.
 MP_SendRecv            24                 409600.
 MP_ISendRecv         1905                  24960.
 MP_Wait              2191
 MP_comm_split           3
 MP_ISend              242                 380679.
 MP_IRecv              242                 381587.
 MP_Recv                15                  69760.
 -------------------------------------------------------------------------------


 -------------------------------------------------------------------------------
 -                                                                             -
 -                           R E F E R E N C E S                               -
 -                                                                             -
 -------------------------------------------------------------------------------
 
 CP2K version 9.1, the CP2K developers group (2021).
 CP2K is freely available from https://www.cp2k.org/ .

 Kuehne,Thomas D.; Iannuzzi,Marcella; Del Ben,Mauro;
 Rybkin,Vladimir V.; Seewald,Patrick; Stein,Frederick; Laino,Teodoro;
 Khaliullin,Rustam Z.; Schuett,Ole; Schiffmann,Florian; Golze,Dorothea;
 Wilhelm,Jan; Chulkov,Sergey; Bani-Hashemian,Mohammad Hossein;
 Weber,Valery; Borstnik,Urban; Taillefumier,Mathieu;
 Jakobovits,Alice Shoshana; Lazzaro,Alfio; Pabst,Hans; Mueller,Tiziano;
 Schade,Robert; Guidon,Manuel; Andermatt,Samuel; Holmberg,Nico;
 Schenter,Gregory K.; Hehn,Anna; Bussy,Augustin; Belleflamme,Fabian;
 Tabacchi,Gloria; Gloess,Andreas; Lass,Michael; Bethune,Iain;
 Mundy,Christopher J.; Plessl,Christian; Watkins,Matt;
 VandeVondele,Joost; Krack,Matthias; Hutter,Juerg. 
 The Journal of Chemical Physics, 152 (19), (2020). 
 CP2K: An electronic structure and molecular dynamics software package -
 Quickstep: Efficient and accurate electronic structure calculations.
 https://doi.org/10.1063/5.0007045

 Goerigk, Lars; Hansen, Andreas; Bauer, Christoph; Ehrlich, Stephan;
 Najibi, Asim; Grimme, Stefan. , 19 (48), (2017). 
 A look at the density functional theory zoo with the advanced GMTKN55 database
 for general main group thermochemistry, kinetics and noncovalent interactions.
 https://doi.org/10.1039/C7CP04913G

 Schuett, Ole; Messmer, Peter; Hutter, Juerg; VandeVondele, Joost. 
 Electronic Structure Calculations on Graphics Processing Units, John
 Wiley & Sons, Ltd, 173-190 (2016). 
 GPU-Accelerated Sparse Matrix-Matrix Multiplication for
 Linear Scaling Density Functional Theory.
 https://doi.org/10.1002/9781118670712.ch8

 Borstnik, U; VandeVondele, J; Weber, V; Hutter, J. 
 PARALLEL COMPUTING, 40 (5-6), 47-58 (2014). 
 Sparse matrix multiplication: The distributed block-compressed sparse
 row library.
 https://doi.org/10.1016/j.parco.2014.03.012

 Hutter, J; Iannuzzi, M; Schiffmann, F; VandeVondele, J. 
 WIREs Comput Mol Sci., 4 (1), 15-25 (2014). 
 CP2K: atomistic simulations of condensed matter systems.
 https://doi.org/10.1002/wcms.1159

 Marek, A; Blum, V; Johanni, R; Havu, V; Lang, B; Auckenthaler, T;
 Heinecke, A; Bungartz, H; Lederer, H. 
 Journal of Physics: Condensed Matter, 26 (21), (2014). 
 The ELPA library: scalable parallel eigenvalue solutions for
 electronic structure
 theory and computational science.
 https://doi.org/10.1088/0953-8984/26/21/213201

 Grimme, S; Ehrlich, S; Goerigk, L. 
 JOURNAL OF COMPUTATIONAL CHEMISTRY, 32, 1456 (2011). 
 Effect of the damping function in dispersion corrected density functional theory.
 https://doi.org/10.1002/jcc.21759

 Grimme, S; Antony, J; Ehrlich, S; Krieg, H. 
 JOURNAL OF CHEMICAL PHYSICS, 132 (15), 154104 (2010). 
 A consistent and accurate ab initio parametrization of density
 functional dispersion correction (DFT-D) for the 94 elements H-Pu.
 https://doi.org/10.1063/1.3382344

 VandeVondele, J; Hutter, J. 
 JOURNAL OF CHEMICAL PHYSICS, 127 (11), 114105 (2007). 
 Gaussian basis sets for accurate calculations on molecular systems in
 gas and condensed phases.
 https://doi.org/10.1063/1.2770708

 Krack, M. 
 THEORETICAL CHEMISTRY ACCOUNTS, 114 (1-3), 145-152 (2005). 
 Pseudopotentials for H to Kr optimized for gradient-corrected
 exchange-correlation functionals.
 https://doi.org/10.1007/s00214-005-0655-y

 VandeVondele, J; Krack, M; Mohamed, F; Parrinello, M; Chassaing, T;
 Hutter, J. COMPUTER PHYSICS COMMUNICATIONS, 167 (2), 103-128 (2005). 
 QUICKSTEP: Fast and accurate density functional calculations using a
 mixed Gaussian and plane waves approach.
 https://doi.org/10.1016/j.cpc.2004.12.014

 Frigo, M; Johnson, SG. 
 PROCEEDINGS OF THE IEEE, 93 (2), 216-231 (2005). 
 The design and implementation of FFTW3.
 https://doi.org/10.1109/JPROC.2004.840301

 Hartwigsen, C; Goedecker, S; Hutter, J. 
 PHYSICAL REVIEW B, 58 (7), 3641-3662 (1998). 
 Relativistic separable dual-space Gaussian pseudopotentials from H to Rn.
 https://doi.org/10.1103/PhysRevB.58.3641

 Zhang, YK; Yang, WT. 
 PHYSICAL REVIEW LETTERS, 80 (4), 890-890 (1998). 
 Comment on Generalized gradient approximation made simple.
 https://doi.org/10.1103/PhysRevLett.80.890

 Lippert, G; Hutter, J; Parrinello, M. 
 MOLECULAR PHYSICS, 92 (3), 477-487 (1997). 
 A hybrid Gaussian and plane wave density functional scheme.
 https://doi.org/10.1080/002689797170220

 Perdew, JP; Burke, K; Ernzerhof, M. 
 PHYSICAL REVIEW LETTERS, 77 (18), 3865-3868 (1996). 
 Generalized gradient approximation made simple.
 https://doi.org/10.1103/PhysRevLett.77.3865

 Goedecker, S; Teter, M; Hutter, J. 
 PHYSICAL REVIEW B, 54 (3), 1703-1710 (1996). 
 Separable dual-space Gaussian pseudopotentials.
 https://doi.org/10.1103/PhysRevB.54.1703


 -------------------------------------------------------------------------------
 -                                                                             -
 -                                T I M I N G                                  -
 -                                                                             -
 -------------------------------------------------------------------------------
 SUBROUTINE                       CALLS  ASD         SELF TIME        TOTAL TIME
                                MAXIMUM       AVERAGE  MAXIMUM  AVERAGE  MAXIMUM
 CP2K                                 1  1.0    0.113    0.124    3.241    3.246
 qs_energies                          1  2.0    0.006    0.009    2.501    2.509
 scf_env_do_scf                       1  3.0    0.000    0.004    1.517    1.523
 scf_env_do_scf_inner_loop            2  4.0    0.009    0.012    1.516    1.522
 rs_pw_transfer                      26  9.1    0.001    0.001    0.771    0.796
 qs_rho_update_rho                    3  5.0    0.000    0.001    0.766    0.769
 calculate_rho_elec                   3  6.0    0.003    0.004    0.766    0.769
 qs_ks_update_qs_env                  2  5.0    0.000    0.000    0.736    0.741
 rebuild_ks_matrix                    2  6.0    0.002    0.003    0.735    0.736
 qs_ks_build_kohn_sham_matrix         2  7.0    0.005    0.009    0.733    0.736
 init_scf_run                         1  3.0    0.002    0.003    0.676    0.680
 density_rs2pw                        3  7.0    0.002    0.003    0.588    0.612
 scf_env_initial_rho_setup            1  4.0    0.004    0.006    0.503    0.505
 pw_transfer                         36  8.8    0.006    0.008    0.429    0.449
 fft_wrap_pw1pw2                     32  9.8    0.001    0.002    0.415    0.433
 sum_up_and_integrate                 2  8.0    0.004    0.006    0.397    0.400
 rs_pw_transfer_RS2PW_530             4  8.5    0.163    0.194    0.369    0.397
 integrate_v_rspace                   2  9.0    0.000    0.001    0.393    0.396
 fft_wrap_pw1pw2_530                 12 10.2    0.035    0.041    0.374    0.392
 qs_init_subsys                       1  2.0    0.009    0.016    0.385    0.392
 mp_waitany                         242 10.9    0.291    0.384    0.291    0.384
 potential_pw2rs                      2 10.0    0.000    0.000    0.358    0.362
 fft3d_ps                            32 11.8    0.152    0.169    0.324    0.348
 qs_energies_init_hamiltonians        1  3.0    0.005    0.008    0.291    0.296
 cp_fm_diag_elpa                      3  7.3    0.000    0.002    0.255    0.258
 qs_scf_new_mos                       2  5.0    0.002    0.003    0.252    0.255
 qs_dispersion_pairpot_init           1  3.0    0.009    0.183    0.212    0.238
 qs_env_update_s_mstruct              1  4.0    0.000    0.001    0.222    0.236
 eigensolver                          2  6.0    0.001    0.002    0.234    0.235
 qs_vxc_create                        2  8.0    0.003    0.004    0.225    0.234
 xc_vxc_pw_create                     2  9.0    0.007    0.008    0.223    0.232
 calculate_rho_core                   1  5.0    0.007    0.011    0.195    0.209
 cp_fm_redistribute_end               3  8.3    0.180    0.206    0.181    0.207
 cp_fm_diag_elpa_base                 3  8.1    0.024    0.199    0.024    0.201
 rs_pw_transfer_PW2RS_530             2 12.0    0.088    0.102    0.179    0.192
 mp_bcast_dv                          6  7.7    0.177    0.182    0.177    0.182
 grid_collocate_task_list             3  7.0    0.165    0.180    0.165    0.180
 xc_rho_set_and_dset_create           2 10.0    0.003    0.005    0.159    0.177
 mp_alltoall_z22v                    32 13.8    0.137    0.172    0.137    0.172
 calculate_first_density_matrix       1  5.0    0.002    0.005    0.166    0.168
 cp_fm_cholesky_decompose             1  4.0    0.147    0.153    0.147    0.153
 qs_env_setup                         1  3.0    0.003    0.005    0.132    0.146
 pw_nn_compose_r                     12 10.5    0.064    0.068    0.096    0.141
 create_qs_kind_set                   1  2.0    0.000    0.001    0.122    0.136
 read_qs_kind                         3  3.0    0.044    0.056    0.122    0.136
 qs_env_rebuild_pw_env                2  3.5    0.002    0.002    0.122    0.135
 pw_env_rebuild                       1  5.0    0.006    0.008    0.119    0.131
 mp_bcast_i                          86  6.0    0.091    0.120    0.091    0.120
 mp_waitall_1                      2397 11.4    0.098    0.118    0.098    0.118
 xc_functional_eval                   2 11.0    0.000    0.000    0.100    0.117
 pbe_lda_eval                         2 12.0    0.100    0.117    0.100    0.117
 yz_to_x                             18 12.2    0.014    0.021    0.089    0.115
 parser_read_line                  9939  4.0    0.004    0.004    0.095    0.111
 make_basis_lowdin                    1  6.0    0.003    0.004    0.104    0.107
 parser_read_line_low                15  5.1    0.007    0.064    0.091    0.107
 broadcast_input_information         15  6.1    0.000    0.000    0.084    0.101
 pw_grid_setup                        5  6.0    0.001    0.002    0.096    0.098
 pw_grid_setup_internal               5  7.0    0.007    0.010    0.096    0.098
 x_to_yz                             14 13.6    0.016    0.019    0.078    0.094
 mp_sendrecv_dm2                     24 11.5    0.032    0.082    0.032    0.082
 mp_irecv_dm3                        66 10.9    0.045    0.072    0.045    0.072
 rs_pw_transfer_PW2RS_180             2 12.0    0.012    0.015    0.052    0.071
 build_core_hamiltonian_matrix        1  4.0    0.001    0.003    0.048    0.065
 -------------------------------------------------------------------------------

 The number of warnings for this run is : 1
 
 -------------------------------------------------------------------------------
  **** **** ******  **  PROGRAM ENDED AT                 2025-10-22 11:41:20.745
 ***** ** ***  *** **   PROGRAM RAN ON                                 nid004858
 **    ****   ******    PROGRAM RAN BY                                xr223_ukcp
 ***** **    ** ** **   PROGRAM PROCESS ID                                248538
  **** **  *******  **  PROGRAM STOPPED IN /mnt/lustre/a2fs-work3/work/e89/e89/x
                                           r223_ukcp/BINDING-ENERGY-DARREN/bindi
                                           ng-energy/1-leg/s+1.00/d+4.00
