 DBCSR| CPU Multiplication driver                                           BLAS
 DBCSR| Multrec recursion limit                                              512
 DBCSR| Multiplication stack size                                           1000
 DBCSR| Maximum elements for images                                    UNLIMITED
 DBCSR| Multiplicative factor virtual images                                   1
 DBCSR| Use multiplication densification                                       T
 DBCSR| Multiplication size stacks                                             3
 DBCSR| Use memory pool for CPU allocation                                     F
 DBCSR| Number of 3D layers                                               SINGLE
 DBCSR| Use MPI memory allocation                                              F
 DBCSR| Use RMA algorithm                                                      F
 DBCSR| Use Communication thread                                               T
 DBCSR| Communication thread load                                             87
 DBCSR| MPI: My node id                                                        0
 DBCSR| MPI: Number of nodes                                                 128
 DBCSR| OMP: Current number of threads                                         1
 DBCSR| OMP: Max number of threads                                             1
 DBCSR| Split modifier for TAS multiplication algorithm                  1.0E+00


  **** **** ******  **  PROGRAM STARTED AT               2025-10-22 11:48:30.757
 ***** ** ***  *** **   PROGRAM STARTED ON                             nid003564
 **    ****   ******    PROGRAM STARTED BY                            xr223_ukcp
 ***** **    ** ** **   PROGRAM PROCESS ID                                224997
  **** **  *******  **  PROGRAM STARTED IN /mnt/lustre/a2fs-work3/work/e89/e89/x
                                           r223_ukcp/BINDING-ENERGY-DARREN/bindi
                                           ng-energy/2-leg/s+1.00/d+2.50

 CP2K| version string:                                          CP2K version 9.1
 CP2K| source code revision number:                                  git:d8d7100
 CP2K| cp2kflags: omp libint fftw3 libxc elpa parallel mpi3 scalapack plumed2 mk
 CP2K|            l
 CP2K| is freely available from                            https://www.cp2k.org/
 CP2K| Program compiled at                       Thu 08 Jun 2023 08:54:13 AM BST
 CP2K| Program compiled on                                                  ln03
 CP2K| Program compiled for                                              ARCHER2
 CP2K| Data directory path       /work/y07/shared/apps/core/cp2k/cp2k-9.1.0/data
 CP2K| Input file name                                              cp2k_sub.inp

 GLOBAL| Force Environment number                                              1
 GLOBAL| Basis set file name                                      GTH_BASIS_SETS
 GLOBAL| Potential file name                                           POTENTIAL
 GLOBAL| MM Potential file name                                     MM_POTENTIAL
 GLOBAL| Coordinate file name                                           init.pdb
 GLOBAL| Method name                                                        CP2K
 GLOBAL| Project name                                                    MAT-H2O
 GLOBAL| Run type                                                         ENERGY
 GLOBAL| FFT library                                                       FFTW3
 GLOBAL| Diagonalization library                                            ELPA
 GLOBAL| Minimum number of eigenvectors for ELPA usage                        16
 GLOBAL| Orthonormality check for eigenvectors                          DISABLED
 GLOBAL| Matrix multiplication library                                 ScaLAPACK
 GLOBAL| All-to-all communication in single precision                          F
 GLOBAL| FFTs using library dependent lengths                                  F
 GLOBAL| Grid backend                                                       AUTO
 GLOBAL| Global print level                                                  LOW
 GLOBAL| MPI I/O enabled                                                       T
 GLOBAL| Total number of message passing processes                           128
 GLOBAL| Number of threads for this process                                    1
 GLOBAL| This output is from process                                           0
 GLOBAL| Stack size for threads created by OpenMP (OMP_STACKSIZE)        default
 GLOBAL| CPU model name                          AMD EPYC 7742 64-Core Processor
 GLOBAL| CPUID                                                              1002

 MEMORY| system memory details [Kb]
 MEMORY|                        rank 0           min           max       average
 MEMORY| MemTotal            263266848     263266848     263266848     263266848
 MEMORY| MemFree             241359812     241359812     241359812     241359812
 MEMORY| Buffers                180340        180340        180340        180340
 MEMORY| Cached                1345572       1345572       1345572       1345572
 MEMORY| Slab                  3377520       3377520       3377520       3377520
 MEMORY| SReclaimable           977024        977024        977024        977024
 MEMORY| MemLikelyFree       243862748     243862748     243862748     243862748


 *******************************************************************************
 *******************************************************************************
 **                                                                           **
 **     #####                         ##              ##                      **
 **    ##   ##            ##          ##              ##                      **
 **   ##     ##                       ##            ######                    **
 **   ##     ##  ##   ##  ##   #####  ##  ##   ####   ##    #####    #####    **
 **   ##     ##  ##   ##  ##  ##      ## ##   ##      ##   ##   ##  ##   ##   **
 **   ##  ## ##  ##   ##  ##  ##      ####     ###    ##   ######   ######    **
 **    ##  ###   ##   ##  ##  ##      ## ##      ##   ##   ##       ##        **
 **     #######   #####   ##   #####  ##  ##  ####    ##    #####   ##        **
 **           ##                                                    ##        **
 **                                                                           **
 **                                                ... make the atoms dance   **
 **                                                                           **
 **            Copyright (C) by CP2K developers group (2000-2021)             **
 **                      J. Chem. Phys. 152, 194103 (2020)                    **
 **                                                                           **
 *******************************************************************************


 TOTAL NUMBERS AND MAXIMUM NUMBERS

  Total number of            - Atomic kinds:                                   3
                             - Atoms:                                         67
                             - Shell sets:                                    70
                             - Shells:                                       338
                             - Primitive Cartesian functions:                341
                             - Cartesian basis functions:                    938
                             - Spherical basis functions:                    872

  Maximum angular momentum of- Orbital basis functions:                        2
                             - Local part of the GTH pseudopotential:          2
                             - Non-local part of the GTH pseudopotential:      0


 SCF PARAMETERS         Density guess:                                   RESTART
                        --------------------------------------------------------
                        max_scf:                                              20
                        max_scf_history:                                       0
                        max_diis:                                              4
                        --------------------------------------------------------
                        eps_scf:                                        5.00E-07
                        eps_scf_history:                                0.00E+00
                        eps_diis:                                       1.00E-01
                        eps_eigval:                                     1.00E-05
                        --------------------------------------------------------
                        level_shift [a.u.]:                                 0.00
                        added MOs                                        20    0
                        --------------------------------------------------------
                        Mixing method:                            BROYDEN_MIXING
                                                charge density mixing in g-space
                        --------------------------------------------------------
                        Smear method:                                FERMI_DIRAC
                        Electronic temperature [K]:                        300.0
                        Electronic temperature [a.u.]:                  9.50E-04
                        Accuracy threshold:                             1.00E-10
                        --------------------------------------------------------
                        Outer loop SCF in use 
                        No variables optimised in outer loop
                        eps_scf                                         5.00E-07
                        max_scf                                               20
                        No outer loop optimization
                        step_size                                       5.00E-01

 Number of electrons:                                                        264
 Number of occupied orbitals:                                                132
 Number of molecular orbitals:                                               152

 Number of orbital functions:                                                872
 Number of independent orbital functions:                                    872

 Extrapolation method: initial_guess

 *** WARNING in qs_initial_guess.F:309 :: User requested to restart the    ***
 *** wavefunction from the file named: MAT-H2O-RESTART.wfn. This file does ***
 *** not exist. Please check the existence of the file or change properly  ***
 *** the value of the keyword WFN_RESTART_FILE_NAME. Calculation continues ***
 *** using ATOMIC GUESS.                                                   ***



 SCF WAVEFUNCTION OPTIMIZATION

  Step     Update method      Time    Convergence         Total energy    Change
  ------------------------------------------------------------------------------
     1 NoMix/Diag. 0.40E+00    0.6     0.94713794      -379.1590580031 -3.79E+02
     2 Broy./Diag. 0.40E+00    0.8     0.35575355      -370.0688632965  9.09E+00
     3 Broy./Diag. 0.40E+00    0.8     0.02277524      -378.7411162158 -8.67E+00
     4 Broy./Diag. 0.40E+00    0.8     0.01131043      -382.3221687436 -3.58E+00
     5 Broy./Diag. 0.40E+00    0.8     0.00363493      -382.5666158416 -2.44E-01
     6 Broy./Diag. 0.40E+00    0.8     0.00173123      -382.2448018340  3.22E-01
     7 Broy./Diag. 0.40E+00    0.8     0.00155439      -382.1883299355  5.65E-02
     8 Broy./Diag. 0.40E+00    0.8     0.00115985      -382.1897795539 -1.45E-03
     9 Broy./Diag. 0.40E+00    0.8     0.00103804      -382.1822739695  7.51E-03
    10 Broy./Diag. 0.40E+00    0.8     0.00030362      -382.1828207561 -5.47E-04
    11 Broy./Diag. 0.40E+00    0.8     0.00022037      -382.1815668088  1.25E-03
    12 Broy./Diag. 0.40E+00    0.8     0.00009601      -382.1823823846 -8.16E-04
    13 Broy./Diag. 0.40E+00    0.8     0.00012656      -382.1824555623 -7.32E-05
    14 Broy./Diag. 0.40E+00    0.8     0.00003222      -382.1818854033  5.70E-04
    15 Broy./Diag. 0.40E+00    0.8     0.00001574      -382.1816376702  2.48E-04
    16 Broy./Diag. 0.40E+00    0.8     0.00003391      -382.1816774438 -3.98E-05
    17 Broy./Diag. 0.40E+00    0.8     0.00000766      -382.1818124022 -1.35E-04
    18 Broy./Diag. 0.40E+00    0.8     0.00000209      -382.1818430261 -3.06E-05
    19 Broy./Diag. 0.40E+00    0.8     0.00000167      -382.1818658362 -2.28E-05
    20 Broy./Diag. 0.40E+00    0.8     0.00000078      -382.1818820810 -1.62E-05

  Leaving inner SCF loop after reaching    20 steps.


  Electronic density on regular grids:       -264.0000000000        0.0000000000
  Core density on regular grids:              263.9999999998       -0.0000000002
  Total charge density on r-space grids:       -0.0000000002
  Total charge density g-space grids:          -0.0000000002

  Overlap energy of the core charge distribution:               0.00000793327650
  Self energy of the core charge distribution:               -897.78766230971098
  Core Hamiltonian energy:                                    278.78655551757936
  Hartree energy:                                             352.95869690015758
  Exchange-correlation energy:                               -115.95326507076317
  Dispersion energy:                                           -0.18621505154402
  Electronic entropic energy:                                  -0.00000000000000
  Fermi energy:                                                -0.07183115765140

  Total energy:                                              -382.18188208100474

  outer SCF iter =    1 RMS gradient =   0.78E-06 energy =       -382.1818820810
     1 Broy./Diag. 0.40E+00    1.5     0.00000091      -382.1818976590 -1.56E-05
     2 Broy./Diag. 0.40E+00    0.8     0.00000090      -382.1818952451  2.41E-06
     3 Broy./Diag. 0.40E+00    0.8     0.00000031      -382.1818794052  1.58E-05

  *** SCF run converged in     3 steps ***


  Electronic density on regular grids:       -264.0000000000        0.0000000000
  Core density on regular grids:              263.9999999998       -0.0000000002
  Total charge density on r-space grids:       -0.0000000002
  Total charge density g-space grids:          -0.0000000002

  Overlap energy of the core charge distribution:               0.00000793327650
  Self energy of the core charge distribution:               -897.78766230971098
  Core Hamiltonian energy:                                    278.78654965517694
  Hartree energy:                                             352.95870658228966
  Exchange-correlation energy:                               -115.95326621464805
  Dispersion energy:                                           -0.18621505154402
  Electronic entropic energy:                                  -0.00000000000000
  Fermi energy:                                                -0.07183090531709

  Total energy:                                              -382.18187940515998

  outer SCF iter =    2 RMS gradient =   0.31E-06 energy =       -382.1818794052
  outer SCF loop converged in   2 iterations or   23 steps


 ENERGY| Total FORCE_EVAL ( QS ) energy [a.u.]:             -382.181879405159975

 -------------------------------------------------------------------------------
 -                                                                             -
 -                                DBCSR STATISTICS                             -
 -                                                                             -
 -------------------------------------------------------------------------------
 COUNTER                                    TOTAL       BLAS       SMM       ACC
 flops     9 x    22 x    24               218592     100.0%      0.0%      0.0%
 flops    22 x     9 x    24               218592     100.0%      0.0%      0.0%
 flops     9 x     9 x    24               268272     100.0%      0.0%      0.0%
 flops    22 x    22 x    24               534336     100.0%      0.0%      0.0%
 flops     9 x    22 x    32              1165824     100.0%      0.0%      0.0%
 flops    22 x     9 x    32              1165824     100.0%      0.0%      0.0%
 flops     9 x     9 x    32              1430784     100.0%      0.0%      0.0%
 flops    22 x    22 x    32              2849792     100.0%      0.0%      0.0%
 flops     9 x    13 x    24              8266752     100.0%      0.0%      0.0%
 flops    13 x     9 x    24              8266752     100.0%      0.0%      0.0%
 flops    22 x    13 x    24             10103808     100.0%      0.0%      0.0%
 flops    13 x    22 x    24             10103808     100.0%      0.0%      0.0%
 flops     9 x    13 x    32             44089344     100.0%      0.0%      0.0%
 flops    13 x     9 x    32             44089344     100.0%      0.0%      0.0%
 flops    22 x    13 x    32             53886976     100.0%      0.0%      0.0%
 flops    13 x    22 x    32             53886976     100.0%      0.0%      0.0%
 flops    13 x    13 x    24            388078080     100.0%      0.0%      0.0%
 flops    13 x    13 x    32           2069749760     100.0%      0.0%      0.0%
 flops inhomo. stacks                           0       0.0%      0.0%      0.0%
 flops total                         2.698374E+09     100.0%      0.0%      0.0%
 flops max/rank                     35.267648E+06     100.0%      0.0%      0.0%
 matmuls inhomo. stacks                         0       0.0%      0.0%      0.0%
 matmuls total                             261970     100.0%      0.0%      0.0%
 number of processed stacks                 23575     100.0%      0.0%      0.0%
 average stack size                                    11.1       0.0       0.0
 marketing flops                     4.617052E+09
 -------------------------------------------------------------------------------
 # multiplications                             23
 max memory usage/rank             341.229568E+06
 # max total images/rank                        2
 # max 3D layers                                1
 # MPI messages exchanged                   85376
 MPI messages size (bytes):
  total size                       536.538112E+06
  min size                           0.000000E+00
  max size                          29.952000E+03
  average size                       6.284414E+03
 MPI breakdown and total messages size (bytes):
             size <=      128               58696                        0
       128 < size <=     8192                   0                        0
      8192 < size <=    32768               26680                536538112
     32768 < size <=   131072                   0                        0
    131072 < size <=  4194304                   0                        0
   4194304 < size <= 16777216                   0                        0
  16777216 < size                               0                        0
 -------------------------------------------------------------------------------

 *** WARNING in dbcsr_mm.F:294 :: Using a non-square number of MPI ranks ***
 *** might lead to poor performance. Used ranks: 128 Suggested: 121 256  ***

 -------------------------------------------------------------------------------
 -                                                                             -
 -                      DBCSR MESSAGE PASSING PERFORMANCE                      -
 -                                                                             -
 -------------------------------------------------------------------------------
 ROUTINE             CALLS      AVE VOLUME [Bytes]
 MP_Bcast               19                     12.
 MP_Allreduce          217                     12.
 MP_Alltoall           656                  51873.
 MP_ISend             1472                   3590.
 MP_IRecv             1472                   2683.
 -------------------------------------------------------------------------------

 -------------------------------------------------------------------------------
 -                                                                             -
 -                                GRID STATISTICS                              -
 -                                                                             -
 -------------------------------------------------------------------------------
 LP    KERNEL             BACKEND                              COUNT     PERCENT
 4     collocate ortho    REF                                1131024      46.53%
 4     integrate ortho    REF                                1083898      44.60%
 2     collocate ortho    REF                                  55272       2.27%
 2     integrate ortho    REF                                  52969       2.18%
 3     collocate ortho    REF                                  45792       1.88%
 3     integrate ortho    REF                                  43884       1.81%
 0     collocate general  REF                                   8576       0.35%
 1     collocate ortho    REF                                   2736       0.11%
 1     integrate ortho    REF                                   2622       0.11%
 0     collocate ortho    REF                                   1920       0.08%
 0     integrate ortho    REF                                   1840       0.08%
 -------------------------------------------------------------------------------

 MEMORY| Estimated peak process memory [MiB]                                 326

 -------------------------------------------------------------------------------
 -                                                                             -
 -                         MESSAGE PASSING PERFORMANCE                         -
 -                                                                             -
 -------------------------------------------------------------------------------

 ROUTINE             CALLS      AVE VOLUME [Bytes]
 MP_Group                5
 MP_Bcast              182                3572116.
 MP_Allreduce          631                   1561.
 MP_Sync                51
 MP_Alltoall           367                3357862.
 MP_SendRecv           276                 409600.
 MP_ISendRecv        17907                  24960.
 MP_Wait             20377
 MP_comm_split          23
 MP_ISend             2090                 366076.
 MP_IRecv             2090                 366181.
 MP_Recv                15                  69760.
 -------------------------------------------------------------------------------


 -------------------------------------------------------------------------------
 -                                                                             -
 -                           R E F E R E N C E S                               -
 -                                                                             -
 -------------------------------------------------------------------------------
 
 CP2K version 9.1, the CP2K developers group (2021).
 CP2K is freely available from https://www.cp2k.org/ .

 Kuehne,Thomas D.; Iannuzzi,Marcella; Del Ben,Mauro;
 Rybkin,Vladimir V.; Seewald,Patrick; Stein,Frederick; Laino,Teodoro;
 Khaliullin,Rustam Z.; Schuett,Ole; Schiffmann,Florian; Golze,Dorothea;
 Wilhelm,Jan; Chulkov,Sergey; Bani-Hashemian,Mohammad Hossein;
 Weber,Valery; Borstnik,Urban; Taillefumier,Mathieu;
 Jakobovits,Alice Shoshana; Lazzaro,Alfio; Pabst,Hans; Mueller,Tiziano;
 Schade,Robert; Guidon,Manuel; Andermatt,Samuel; Holmberg,Nico;
 Schenter,Gregory K.; Hehn,Anna; Bussy,Augustin; Belleflamme,Fabian;
 Tabacchi,Gloria; Gloess,Andreas; Lass,Michael; Bethune,Iain;
 Mundy,Christopher J.; Plessl,Christian; Watkins,Matt;
 VandeVondele,Joost; Krack,Matthias; Hutter,Juerg. 
 The Journal of Chemical Physics, 152 (19), (2020). 
 CP2K: An electronic structure and molecular dynamics software package -
 Quickstep: Efficient and accurate electronic structure calculations.
 https://doi.org/10.1063/5.0007045

 Goerigk, Lars; Hansen, Andreas; Bauer, Christoph; Ehrlich, Stephan;
 Najibi, Asim; Grimme, Stefan. , 19 (48), (2017). 
 A look at the density functional theory zoo with the advanced GMTKN55 database
 for general main group thermochemistry, kinetics and noncovalent interactions.
 https://doi.org/10.1039/C7CP04913G

 Schuett, Ole; Messmer, Peter; Hutter, Juerg; VandeVondele, Joost. 
 Electronic Structure Calculations on Graphics Processing Units, John
 Wiley & Sons, Ltd, 173-190 (2016). 
 GPU-Accelerated Sparse Matrix-Matrix Multiplication for
 Linear Scaling Density Functional Theory.
 https://doi.org/10.1002/9781118670712.ch8

 Borstnik, U; VandeVondele, J; Weber, V; Hutter, J. 
 PARALLEL COMPUTING, 40 (5-6), 47-58 (2014). 
 Sparse matrix multiplication: The distributed block-compressed sparse
 row library.
 https://doi.org/10.1016/j.parco.2014.03.012

 Hutter, J; Iannuzzi, M; Schiffmann, F; VandeVondele, J. 
 WIREs Comput Mol Sci., 4 (1), 15-25 (2014). 
 CP2K: atomistic simulations of condensed matter systems.
 https://doi.org/10.1002/wcms.1159

 Marek, A; Blum, V; Johanni, R; Havu, V; Lang, B; Auckenthaler, T;
 Heinecke, A; Bungartz, H; Lederer, H. 
 Journal of Physics: Condensed Matter, 26 (21), (2014). 
 The ELPA library: scalable parallel eigenvalue solutions for
 electronic structure
 theory and computational science.
 https://doi.org/10.1088/0953-8984/26/21/213201

 Grimme, S; Ehrlich, S; Goerigk, L. 
 JOURNAL OF COMPUTATIONAL CHEMISTRY, 32, 1456 (2011). 
 Effect of the damping function in dispersion corrected density functional theory.
 https://doi.org/10.1002/jcc.21759

 Grimme, S; Antony, J; Ehrlich, S; Krieg, H. 
 JOURNAL OF CHEMICAL PHYSICS, 132 (15), 154104 (2010). 
 A consistent and accurate ab initio parametrization of density
 functional dispersion correction (DFT-D) for the 94 elements H-Pu.
 https://doi.org/10.1063/1.3382344

 VandeVondele, J; Hutter, J. 
 JOURNAL OF CHEMICAL PHYSICS, 127 (11), 114105 (2007). 
 Gaussian basis sets for accurate calculations on molecular systems in
 gas and condensed phases.
 https://doi.org/10.1063/1.2770708

 Krack, M. 
 THEORETICAL CHEMISTRY ACCOUNTS, 114 (1-3), 145-152 (2005). 
 Pseudopotentials for H to Kr optimized for gradient-corrected
 exchange-correlation functionals.
 https://doi.org/10.1007/s00214-005-0655-y

 VandeVondele, J; Krack, M; Mohamed, F; Parrinello, M; Chassaing, T;
 Hutter, J. COMPUTER PHYSICS COMMUNICATIONS, 167 (2), 103-128 (2005). 
 QUICKSTEP: Fast and accurate density functional calculations using a
 mixed Gaussian and plane waves approach.
 https://doi.org/10.1016/j.cpc.2004.12.014

 Frigo, M; Johnson, SG. 
 PROCEEDINGS OF THE IEEE, 93 (2), 216-231 (2005). 
 The design and implementation of FFTW3.
 https://doi.org/10.1109/JPROC.2004.840301

 Hartwigsen, C; Goedecker, S; Hutter, J. 
 PHYSICAL REVIEW B, 58 (7), 3641-3662 (1998). 
 Relativistic separable dual-space Gaussian pseudopotentials from H to Rn.
 https://doi.org/10.1103/PhysRevB.58.3641

 Zhang, YK; Yang, WT. 
 PHYSICAL REVIEW LETTERS, 80 (4), 890-890 (1998). 
 Comment on Generalized gradient approximation made simple.
 https://doi.org/10.1103/PhysRevLett.80.890

 Lippert, G; Hutter, J; Parrinello, M. 
 MOLECULAR PHYSICS, 92 (3), 477-487 (1997). 
 A hybrid Gaussian and plane wave density functional scheme.
 https://doi.org/10.1080/002689797170220

 Perdew, JP; Burke, K; Ernzerhof, M. 
 PHYSICAL REVIEW LETTERS, 77 (18), 3865-3868 (1996). 
 Generalized gradient approximation made simple.
 https://doi.org/10.1103/PhysRevLett.77.3865

 Goedecker, S; Teter, M; Hutter, J. 
 PHYSICAL REVIEW B, 54 (3), 1703-1710 (1996). 
 Separable dual-space Gaussian pseudopotentials.
 https://doi.org/10.1103/PhysRevB.54.1703


 -------------------------------------------------------------------------------
 -                                                                             -
 -                                T I M I N G                                  -
 -                                                                             -
 -------------------------------------------------------------------------------
 SUBROUTINE                       CALLS  ASD         SELF TIME        TOTAL TIME
                                MAXIMUM       AVERAGE  MAXIMUM  AVERAGE  MAXIMUM
 CP2K                                 1  1.0    0.111    0.122   19.959   19.965
 qs_energies                          1  2.0    0.006    0.011   19.299   19.308
 scf_env_do_scf                       1  3.0    0.003    0.005   18.407   18.414
 scf_env_do_scf_inner_loop           23  4.0    0.009    0.012   18.404   18.409
 qs_ks_update_qs_env                 23  5.0    0.001    0.001    8.082    8.088
 rebuild_ks_matrix                   23  6.0    0.003    0.004    8.078    8.080
 qs_ks_build_kohn_sham_matrix        23  7.0    0.010    0.014    8.075    8.079
 rs_pw_transfer                     236  9.5    0.005    0.007    5.599    5.873
 qs_rho_update_rho                   24  5.0    0.000    0.002    5.660    5.663
 calculate_rho_elec                  24  6.0    0.022    0.024    5.660    5.663
 density_rs2pw                       24  7.0    0.004    0.005    4.259    4.577
 sum_up_and_integrate                23  8.0    0.025    0.037    4.248    4.253
 integrate_v_rspace                  23  9.0    0.001    0.002    4.223    4.237
 pw_transfer                        350  9.0    0.065    0.074    3.752    3.896
 potential_pw2rs                     23 10.0    0.003    0.003    3.767    3.781
 fft_wrap_pw1pw2                    304 10.0    0.003    0.005    3.598    3.749
 fft_wrap_pw1pw2_530                116 10.2    0.312    0.375    3.298    3.444
 fft3d_ps                           304 12.0    1.502    1.657    2.773    2.980
 qs_vxc_create                       23  8.0    0.004    0.006    2.650    2.736
 xc_vxc_pw_create                    23  9.0    0.069    0.089    2.646    2.733
 gspace_mixing                       21  5.0    0.019    0.022    2.484    2.486
 qs_scf_new_mos                      23  5.0    0.003    0.005    2.454    2.463
 eigensolver                         23  6.0    0.003    0.005    2.279    2.281
 rs_pw_transfer_RS2PW_530            25  8.9    1.121    1.309    1.854    2.121
 xc_rho_set_and_dset_create          23 10.0    0.041    0.061    1.820    2.070
 cp_fm_diag_elpa                     23  7.0    0.000    0.001    2.032    2.040
 cp_fm_redistribute_end              23  8.0    1.752    2.008    1.755    2.008
 cp_fm_diag_elpa_base                23  8.0    0.245    1.965    0.248    1.987
 mp_waitany                        2090 11.4    1.407    1.978    1.407    1.978
 rs_pw_transfer_PW2RS_530            23 12.0    1.212    1.280    1.880    1.939
 broyden_mixing                      21  6.0    1.812    1.851    1.852    1.867
 pw_nn_compose_r                    138 10.5    0.740    0.791    1.090    1.622
 grid_collocate_task_list            24  7.0    1.313    1.414    1.313    1.414
 xc_functional_eval                  23 11.0    0.000    0.001    1.142    1.376
 pbe_lda_eval                        23 12.0    1.141    1.376    1.141    1.376
 mp_alltoall_z22v                   304 14.0    0.958    1.281    0.958    1.281
 mp_sendrecv_dm2                    276 11.5    0.349    0.946    0.349    0.946
 mp_waitall_1                     20863 11.5    0.765    0.874    0.765    0.874
 yz_to_x                            144 12.5    0.115    0.162    0.576    0.808
 x_to_yz                            160 13.5    0.189    0.229    0.685    0.783
 mp_sum_d                           607  3.6    0.345    0.676    0.345    0.676
 init_scf_run                         1  3.0    0.002    0.003    0.582    0.585
 rs_pw_transfer_PW2RS_180            23 12.0    0.208    0.230    0.453    0.542
 grid_integrate_task_list            23 10.0    0.323    0.446    0.323    0.446
 rs_pw_transfer_PW2RS_60             23 12.0    0.119    0.175    0.383    0.417
 pw_poisson_solve                    23  8.0    0.158    0.168    0.405    0.408
 scf_env_initial_rho_setup            1  4.0    0.003    0.004    0.404    0.406
 -------------------------------------------------------------------------------

 The number of warnings for this run is : 2
 
 -------------------------------------------------------------------------------
  **** **** ******  **  PROGRAM ENDED AT                 2025-10-22 11:48:56.826
 ***** ** ***  *** **   PROGRAM RAN ON                                 nid003564
 **    ****   ******    PROGRAM RAN BY                                xr223_ukcp
 ***** **    ** ** **   PROGRAM PROCESS ID                                224997
  **** **  *******  **  PROGRAM STOPPED IN /mnt/lustre/a2fs-work3/work/e89/e89/x
                                           r223_ukcp/BINDING-ENERGY-DARREN/bindi
                                           ng-energy/2-leg/s+1.00/d+2.50
 DBCSR| CPU Multiplication driver                                           BLAS
 DBCSR| Multrec recursion limit                                              512
 DBCSR| Multiplication stack size                                           1000
 DBCSR| Maximum elements for images                                    UNLIMITED
 DBCSR| Multiplicative factor virtual images                                   1
 DBCSR| Use multiplication densification                                       T
 DBCSR| Multiplication size stacks                                             3
 DBCSR| Use memory pool for CPU allocation                                     F
 DBCSR| Number of 3D layers                                               SINGLE
 DBCSR| Use MPI memory allocation                                              F
 DBCSR| Use RMA algorithm                                                      F
 DBCSR| Use Communication thread                                               T
 DBCSR| Communication thread load                                             87
 DBCSR| MPI: My node id                                                        0
 DBCSR| MPI: Number of nodes                                                 128
 DBCSR| OMP: Current number of threads                                         1
 DBCSR| OMP: Max number of threads                                             1
 DBCSR| Split modifier for TAS multiplication algorithm                  1.0E+00


  **** **** ******  **  PROGRAM STARTED AT               2025-10-22 11:49:24.506
 ***** ** ***  *** **   PROGRAM STARTED ON                             nid001136
 **    ****   ******    PROGRAM STARTED BY                            xr223_ukcp
 ***** **    ** ** **   PROGRAM PROCESS ID                                 69103
  **** **  *******  **  PROGRAM STARTED IN /mnt/lustre/a2fs-work3/work/e89/e89/x
                                           r223_ukcp/BINDING-ENERGY-DARREN/bindi
                                           ng-energy/2-leg/s+1.00/d+2.50

 CP2K| version string:                                          CP2K version 9.1
 CP2K| source code revision number:                                  git:d8d7100
 CP2K| cp2kflags: omp libint fftw3 libxc elpa parallel mpi3 scalapack plumed2 mk
 CP2K|            l
 CP2K| is freely available from                            https://www.cp2k.org/
 CP2K| Program compiled at                       Thu 08 Jun 2023 08:54:13 AM BST
 CP2K| Program compiled on                                                  ln03
 CP2K| Program compiled for                                              ARCHER2
 CP2K| Data directory path       /work/y07/shared/apps/core/cp2k/cp2k-9.1.0/data
 CP2K| Input file name                                              cp2k_sub.inp

 GLOBAL| Force Environment number                                              1
 GLOBAL| Basis set file name                                      GTH_BASIS_SETS
 GLOBAL| Potential file name                                           POTENTIAL
 GLOBAL| MM Potential file name                                     MM_POTENTIAL
 GLOBAL| Coordinate file name                                           init.pdb
 GLOBAL| Method name                                                        CP2K
 GLOBAL| Project name                                                    MAT-H2O
 GLOBAL| Run type                                                         ENERGY
 GLOBAL| FFT library                                                       FFTW3
 GLOBAL| Diagonalization library                                            ELPA
 GLOBAL| Minimum number of eigenvectors for ELPA usage                        16
 GLOBAL| Orthonormality check for eigenvectors                          DISABLED
 GLOBAL| Matrix multiplication library                                 ScaLAPACK
 GLOBAL| All-to-all communication in single precision                          F
 GLOBAL| FFTs using library dependent lengths                                  F
 GLOBAL| Grid backend                                                       AUTO
 GLOBAL| Global print level                                                  LOW
 GLOBAL| MPI I/O enabled                                                       T
 GLOBAL| Total number of message passing processes                           128
 GLOBAL| Number of threads for this process                                    1
 GLOBAL| This output is from process                                           0
 GLOBAL| Stack size for threads created by OpenMP (OMP_STACKSIZE)        default
 GLOBAL| CPU model name                          AMD EPYC 7742 64-Core Processor
 GLOBAL| CPUID                                                              1002

 MEMORY| system memory details [Kb]
 MEMORY|                        rank 0           min           max       average
 MEMORY| MemTotal            263266892     263266892     263266892     263266892
 MEMORY| MemFree             241229636     241224248     241229636     241227861
 MEMORY| Buffers                182460        182460        182460        182460
 MEMORY| Cached                1361120       1354568       1361120       1359087
 MEMORY| Slab                  3473728       3473688       3473728       3473715
 MEMORY| SReclaimable           984792        984792        984792        984792
 MEMORY| MemLikelyFree       243758008     243746068     243758008     243754200


 *******************************************************************************
 *******************************************************************************
 **                                                                           **
 **     #####                         ##              ##                      **
 **    ##   ##            ##          ##              ##                      **
 **   ##     ##                       ##            ######                    **
 **   ##     ##  ##   ##  ##   #####  ##  ##   ####   ##    #####    #####    **
 **   ##     ##  ##   ##  ##  ##      ## ##   ##      ##   ##   ##  ##   ##   **
 **   ##  ## ##  ##   ##  ##  ##      ####     ###    ##   ######   ######    **
 **    ##  ###   ##   ##  ##  ##      ## ##      ##   ##   ##       ##        **
 **     #######   #####   ##   #####  ##  ##  ####    ##    #####   ##        **
 **           ##                                                    ##        **
 **                                                                           **
 **                                                ... make the atoms dance   **
 **                                                                           **
 **            Copyright (C) by CP2K developers group (2000-2021)             **
 **                      J. Chem. Phys. 152, 194103 (2020)                    **
 **                                                                           **
 *******************************************************************************


 TOTAL NUMBERS AND MAXIMUM NUMBERS

  Total number of            - Atomic kinds:                                   3
                             - Atoms:                                         67
                             - Shell sets:                                    70
                             - Shells:                                       338
                             - Primitive Cartesian functions:                341
                             - Cartesian basis functions:                    938
                             - Spherical basis functions:                    872

  Maximum angular momentum of- Orbital basis functions:                        2
                             - Local part of the GTH pseudopotential:          2
                             - Non-local part of the GTH pseudopotential:      0


 SCF PARAMETERS         Density guess:                                   RESTART
                        --------------------------------------------------------
                        max_scf:                                              20
                        max_scf_history:                                       0
                        max_diis:                                              4
                        --------------------------------------------------------
                        eps_scf:                                        5.00E-07
                        eps_scf_history:                                0.00E+00
                        eps_diis:                                       1.00E-01
                        eps_eigval:                                     1.00E-05
                        --------------------------------------------------------
                        level_shift [a.u.]:                                 0.00
                        added MOs                                        20    0
                        --------------------------------------------------------
                        Mixing method:                            BROYDEN_MIXING
                                                charge density mixing in g-space
                        --------------------------------------------------------
                        Smear method:                                FERMI_DIRAC
                        Electronic temperature [K]:                        300.0
                        Electronic temperature [a.u.]:                  9.50E-04
                        Accuracy threshold:                             1.00E-10
                        --------------------------------------------------------
                        Outer loop SCF in use 
                        No variables optimised in outer loop
                        eps_scf                                         5.00E-07
                        max_scf                                               20
                        No outer loop optimization
                        step_size                                       5.00E-01

 Number of electrons:                                                        264
 Number of occupied orbitals:                                                132
 Number of molecular orbitals:                                               152

 Number of orbital functions:                                                872
 Number of independent orbital functions:                                    872

 Extrapolation method: initial_guess


 SCF WAVEFUNCTION OPTIMIZATION

  Step     Update method      Time    Convergence         Total energy    Change
  ------------------------------------------------------------------------------
     1 NoMix/Diag. 0.40E+00    0.5     0.00000069      -382.1818976590 -3.82E+02
     2 Broy./Diag. 0.40E+00    0.7     0.00000030      -382.1819065173 -8.86E-06

  *** SCF run converged in     2 steps ***


  Electronic density on regular grids:       -264.0000000000        0.0000000000
  Core density on regular grids:              263.9999999998       -0.0000000002
  Total charge density on r-space grids:       -0.0000000002
  Total charge density g-space grids:          -0.0000000002

  Overlap energy of the core charge distribution:               0.00000793327650
  Self energy of the core charge distribution:               -897.78766230971098
  Core Hamiltonian energy:                                    278.78653404854964
  Hartree energy:                                             352.95870059206436
  Exchange-correlation energy:                               -115.95327172995951
  Dispersion energy:                                           -0.18621505154402
  Electronic entropic energy:                                  -0.00000000000000
  Fermi energy:                                                -0.07183019617913

  Total energy:                                              -382.18190651732397

  outer SCF iter =    1 RMS gradient =   0.30E-06 energy =       -382.1819065173
  outer SCF loop converged in   1 iterations or    2 steps


 ENERGY| Total FORCE_EVAL ( QS ) energy [a.u.]:             -382.181906517323966

 -------------------------------------------------------------------------------
 -                                                                             -
 -                                DBCSR STATISTICS                             -
 -                                                                             -
 -------------------------------------------------------------------------------
 COUNTER                                    TOTAL       BLAS       SMM       ACC
 flops     9 x    24 x     9                15552     100.0%      0.0%      0.0%
 flops     9 x    24 x    22                19008     100.0%      0.0%      0.0%
 flops    22 x    24 x     9                19008     100.0%      0.0%      0.0%
 flops    22 x    24 x    22                23232     100.0%      0.0%      0.0%
 flops     9 x    22 x    24                28512     100.0%      0.0%      0.0%
 flops    22 x     9 x    24                28512     100.0%      0.0%      0.0%
 flops     9 x     9 x    24                34992     100.0%      0.0%      0.0%
 flops    22 x    22 x    24                69696     100.0%      0.0%      0.0%
 flops     9 x    32 x     9                82944     100.0%      0.0%      0.0%
 flops    22 x    32 x     9               101376     100.0%      0.0%      0.0%
 flops     9 x    32 x    22               101376     100.0%      0.0%      0.0%
 flops    22 x    32 x    22               123904     100.0%      0.0%      0.0%
 flops     9 x    22 x    32               152064     100.0%      0.0%      0.0%
 flops    22 x     9 x    32               152064     100.0%      0.0%      0.0%
 flops     9 x     9 x    32               186624     100.0%      0.0%      0.0%
 flops    22 x    22 x    32               371712     100.0%      0.0%      0.0%
 flops     9 x    24 x    13               718848     100.0%      0.0%      0.0%
 flops    13 x    24 x     9               718848     100.0%      0.0%      0.0%
 flops    13 x    24 x    22               878592     100.0%      0.0%      0.0%
 flops    22 x    24 x    13               878592     100.0%      0.0%      0.0%
 flops     9 x    13 x    24              1078272     100.0%      0.0%      0.0%
 flops    13 x     9 x    24              1078272     100.0%      0.0%      0.0%
 flops    22 x    13 x    24              1317888     100.0%      0.0%      0.0%
 flops    13 x    22 x    24              1317888     100.0%      0.0%      0.0%
 flops    13 x    32 x     9              3833856     100.0%      0.0%      0.0%
 flops     9 x    32 x    13              3833856     100.0%      0.0%      0.0%
 flops    22 x    32 x    13              4685824     100.0%      0.0%      0.0%
 flops    13 x    32 x    22              4685824     100.0%      0.0%      0.0%
 flops     9 x    13 x    32              5750784     100.0%      0.0%      0.0%
 flops    13 x     9 x    32              5750784     100.0%      0.0%      0.0%
 flops    22 x    13 x    32              7028736     100.0%      0.0%      0.0%
 flops    13 x    22 x    32              7028736     100.0%      0.0%      0.0%
 flops    13 x    24 x    13             33226752     100.0%      0.0%      0.0%
 flops    13 x    13 x    24             50618880     100.0%      0.0%      0.0%
 flops    13 x    32 x    13            177209344     100.0%      0.0%      0.0%
 flops    13 x    13 x    32            269967360     100.0%      0.0%      0.0%
 flops inhomo. stacks                           0       0.0%      0.0%      0.0%
 flops total                       583.118512E+06     100.0%      0.0%      0.0%
 flops max/rank                     11.129664E+06     100.0%      0.0%      0.0%
 matmuls inhomo. stacks                         0       0.0%      0.0%      0.0%
 matmuls total                              56615     100.0%      0.0%      0.0%
 number of processed stacks                  4120     100.0%      0.0%      0.0%
 average stack size                                    13.7       0.0       0.0
 marketing flops                   833.380864E+06
 -------------------------------------------------------------------------------
 # multiplications                              4
 max memory usage/rank             301.772800E+06
 # max total images/rank                        2
 # max 3D layers                                1
 # MPI messages exchanged                   14848
 MPI messages size (bytes):
  total size                       168.651776E+06
  min size                           0.000000E+00
  max size                          60.840000E+03
  average size                      11.358552E+03
 MPI breakdown and total messages size (bytes):
             size <=      128                8888                        0
       128 < size <=     8192                   0                        0
      8192 < size <=    32768                4040                 77405696
     32768 < size <=   131072                1920                 91246080
    131072 < size <=  4194304                   0                        0
   4194304 < size <= 16777216                   0                        0
  16777216 < size                               0                        0
 -------------------------------------------------------------------------------

 *** WARNING in dbcsr_mm.F:294 :: Using a non-square number of MPI ranks ***
 *** might lead to poor performance. Used ranks: 128 Suggested: 121 256  ***

 -------------------------------------------------------------------------------
 -                                                                             -
 -                      DBCSR MESSAGE PASSING PERFORMANCE                      -
 -                                                                             -
 -------------------------------------------------------------------------------
 ROUTINE             CALLS      AVE VOLUME [Bytes]
 MP_Bcast               37                     12.
 MP_Allreduce          113                     22.
 MP_Alltoall           105                  50711.
 MP_ISend              256                   6473.
 MP_IRecv              256                   5801.
 -------------------------------------------------------------------------------

 -------------------------------------------------------------------------------
 -                                                                             -
 -                                GRID STATISTICS                              -
 -                                                                             -
 -------------------------------------------------------------------------------
 LP    KERNEL             BACKEND                              COUNT     PERCENT
 4     collocate ortho    REF                                 141378      53.10%
 4     integrate ortho    REF                                  94252      35.40%
 0     collocate general  REF                                   8576       3.22%
 2     collocate ortho    REF                                   6909       2.60%
 3     collocate ortho    REF                                   5724       2.15%
 2     integrate ortho    REF                                   4606       1.73%
 3     integrate ortho    REF                                   3816       1.43%
 1     collocate ortho    REF                                    342       0.13%
 0     collocate ortho    REF                                    240       0.09%
 1     integrate ortho    REF                                    228       0.09%
 0     integrate ortho    REF                                    160       0.06%
 -------------------------------------------------------------------------------

 MEMORY| Estimated peak process memory [MiB]                                 291

 -------------------------------------------------------------------------------
 -                                                                             -
 -                         MESSAGE PASSING PERFORMANCE                         -
 -                                                                             -
 -------------------------------------------------------------------------------

 ROUTINE             CALLS      AVE VOLUME [Bytes]
 MP_Group                5
 MP_Bcast              282                2309090.
 MP_Allreduce          348                   2796.
 MP_Sync                11
 MP_Alltoall            53                2416646.
 MP_SendRecv            24                 409600.
 MP_ISendRecv         1905                  24960.
 MP_Wait              2191
 MP_comm_split           3
 MP_ISend              242                 380679.
 MP_IRecv              242                 381587.
 MP_Recv                15                  69760.
 -------------------------------------------------------------------------------


 -------------------------------------------------------------------------------
 -                                                                             -
 -                           R E F E R E N C E S                               -
 -                                                                             -
 -------------------------------------------------------------------------------
 
 CP2K version 9.1, the CP2K developers group (2021).
 CP2K is freely available from https://www.cp2k.org/ .

 Kuehne,Thomas D.; Iannuzzi,Marcella; Del Ben,Mauro;
 Rybkin,Vladimir V.; Seewald,Patrick; Stein,Frederick; Laino,Teodoro;
 Khaliullin,Rustam Z.; Schuett,Ole; Schiffmann,Florian; Golze,Dorothea;
 Wilhelm,Jan; Chulkov,Sergey; Bani-Hashemian,Mohammad Hossein;
 Weber,Valery; Borstnik,Urban; Taillefumier,Mathieu;
 Jakobovits,Alice Shoshana; Lazzaro,Alfio; Pabst,Hans; Mueller,Tiziano;
 Schade,Robert; Guidon,Manuel; Andermatt,Samuel; Holmberg,Nico;
 Schenter,Gregory K.; Hehn,Anna; Bussy,Augustin; Belleflamme,Fabian;
 Tabacchi,Gloria; Gloess,Andreas; Lass,Michael; Bethune,Iain;
 Mundy,Christopher J.; Plessl,Christian; Watkins,Matt;
 VandeVondele,Joost; Krack,Matthias; Hutter,Juerg. 
 The Journal of Chemical Physics, 152 (19), (2020). 
 CP2K: An electronic structure and molecular dynamics software package -
 Quickstep: Efficient and accurate electronic structure calculations.
 https://doi.org/10.1063/5.0007045

 Goerigk, Lars; Hansen, Andreas; Bauer, Christoph; Ehrlich, Stephan;
 Najibi, Asim; Grimme, Stefan. , 19 (48), (2017). 
 A look at the density functional theory zoo with the advanced GMTKN55 database
 for general main group thermochemistry, kinetics and noncovalent interactions.
 https://doi.org/10.1039/C7CP04913G

 Schuett, Ole; Messmer, Peter; Hutter, Juerg; VandeVondele, Joost. 
 Electronic Structure Calculations on Graphics Processing Units, John
 Wiley & Sons, Ltd, 173-190 (2016). 
 GPU-Accelerated Sparse Matrix-Matrix Multiplication for
 Linear Scaling Density Functional Theory.
 https://doi.org/10.1002/9781118670712.ch8

 Borstnik, U; VandeVondele, J; Weber, V; Hutter, J. 
 PARALLEL COMPUTING, 40 (5-6), 47-58 (2014). 
 Sparse matrix multiplication: The distributed block-compressed sparse
 row library.
 https://doi.org/10.1016/j.parco.2014.03.012

 Hutter, J; Iannuzzi, M; Schiffmann, F; VandeVondele, J. 
 WIREs Comput Mol Sci., 4 (1), 15-25 (2014). 
 CP2K: atomistic simulations of condensed matter systems.
 https://doi.org/10.1002/wcms.1159

 Marek, A; Blum, V; Johanni, R; Havu, V; Lang, B; Auckenthaler, T;
 Heinecke, A; Bungartz, H; Lederer, H. 
 Journal of Physics: Condensed Matter, 26 (21), (2014). 
 The ELPA library: scalable parallel eigenvalue solutions for
 electronic structure
 theory and computational science.
 https://doi.org/10.1088/0953-8984/26/21/213201

 Grimme, S; Ehrlich, S; Goerigk, L. 
 JOURNAL OF COMPUTATIONAL CHEMISTRY, 32, 1456 (2011). 
 Effect of the damping function in dispersion corrected density functional theory.
 https://doi.org/10.1002/jcc.21759

 Grimme, S; Antony, J; Ehrlich, S; Krieg, H. 
 JOURNAL OF CHEMICAL PHYSICS, 132 (15), 154104 (2010). 
 A consistent and accurate ab initio parametrization of density
 functional dispersion correction (DFT-D) for the 94 elements H-Pu.
 https://doi.org/10.1063/1.3382344

 VandeVondele, J; Hutter, J. 
 JOURNAL OF CHEMICAL PHYSICS, 127 (11), 114105 (2007). 
 Gaussian basis sets for accurate calculations on molecular systems in
 gas and condensed phases.
 https://doi.org/10.1063/1.2770708

 Krack, M. 
 THEORETICAL CHEMISTRY ACCOUNTS, 114 (1-3), 145-152 (2005). 
 Pseudopotentials for H to Kr optimized for gradient-corrected
 exchange-correlation functionals.
 https://doi.org/10.1007/s00214-005-0655-y

 VandeVondele, J; Krack, M; Mohamed, F; Parrinello, M; Chassaing, T;
 Hutter, J. COMPUTER PHYSICS COMMUNICATIONS, 167 (2), 103-128 (2005). 
 QUICKSTEP: Fast and accurate density functional calculations using a
 mixed Gaussian and plane waves approach.
 https://doi.org/10.1016/j.cpc.2004.12.014

 Frigo, M; Johnson, SG. 
 PROCEEDINGS OF THE IEEE, 93 (2), 216-231 (2005). 
 The design and implementation of FFTW3.
 https://doi.org/10.1109/JPROC.2004.840301

 Hartwigsen, C; Goedecker, S; Hutter, J. 
 PHYSICAL REVIEW B, 58 (7), 3641-3662 (1998). 
 Relativistic separable dual-space Gaussian pseudopotentials from H to Rn.
 https://doi.org/10.1103/PhysRevB.58.3641

 Zhang, YK; Yang, WT. 
 PHYSICAL REVIEW LETTERS, 80 (4), 890-890 (1998). 
 Comment on Generalized gradient approximation made simple.
 https://doi.org/10.1103/PhysRevLett.80.890

 Lippert, G; Hutter, J; Parrinello, M. 
 MOLECULAR PHYSICS, 92 (3), 477-487 (1997). 
 A hybrid Gaussian and plane wave density functional scheme.
 https://doi.org/10.1080/002689797170220

 Perdew, JP; Burke, K; Ernzerhof, M. 
 PHYSICAL REVIEW LETTERS, 77 (18), 3865-3868 (1996). 
 Generalized gradient approximation made simple.
 https://doi.org/10.1103/PhysRevLett.77.3865

 Goedecker, S; Teter, M; Hutter, J. 
 PHYSICAL REVIEW B, 54 (3), 1703-1710 (1996). 
 Separable dual-space Gaussian pseudopotentials.
 https://doi.org/10.1103/PhysRevB.54.1703


 -------------------------------------------------------------------------------
 -                                                                             -
 -                                T I M I N G                                  -
 -                                                                             -
 -------------------------------------------------------------------------------
 SUBROUTINE                       CALLS  ASD         SELF TIME        TOTAL TIME
                                MAXIMUM       AVERAGE  MAXIMUM  AVERAGE  MAXIMUM
 CP2K                                 1  1.0    0.110    0.125    3.215    3.222
 qs_energies                          1  2.0    0.006    0.012    2.545    2.554
 scf_env_do_scf                       1  3.0    0.000    0.003    1.525    1.532
 scf_env_do_scf_inner_loop            2  4.0    0.009    0.012    1.525    1.530
 rs_pw_transfer                      26  9.1    0.001    0.001    0.769    0.796
 qs_rho_update_rho                    3  5.0    0.000    0.001    0.771    0.774
 calculate_rho_elec                   3  6.0    0.003    0.004    0.771    0.774
 qs_ks_update_qs_env                  2  5.0    0.000    0.000    0.743    0.749
 rebuild_ks_matrix                    2  6.0    0.003    0.004    0.742    0.743
 qs_ks_build_kohn_sham_matrix         2  7.0    0.005    0.009    0.739    0.743
 init_scf_run                         1  3.0    0.002    0.003    0.717    0.720
 density_rs2pw                        3  7.0    0.002    0.003    0.592    0.622
 scf_env_initial_rho_setup            1  4.0    0.003    0.005    0.540    0.542
 pw_transfer                         36  8.8    0.007    0.008    0.428    0.450
 fft_wrap_pw1pw2                     32  9.8    0.001    0.001    0.413    0.435
 sum_up_and_integrate                 2  8.0    0.004    0.006    0.405    0.409
 integrate_v_rspace                   2  9.0    0.000    0.001    0.402    0.405
 fft_wrap_pw1pw2_530                 12 10.2    0.035    0.042    0.372    0.393
 rs_pw_transfer_RS2PW_530             4  8.5    0.164    0.192    0.364    0.391
 mp_waitany                         242 10.9    0.291    0.374    0.291    0.374
 potential_pw2rs                      2 10.0    0.000    0.000    0.359    0.362
 fft3d_ps                            32 11.8    0.151    0.168    0.322    0.347
 qs_init_subsys                       1  2.0    0.008    0.015    0.312    0.319
 qs_energies_init_hamiltonians        1  3.0    0.005    0.008    0.287    0.292
 qs_scf_new_mos                       2  5.0    0.001    0.003    0.248    0.252
 cp_fm_diag_elpa                      3  7.3    0.000    0.001    0.248    0.250
 qs_env_update_s_mstruct              1  4.0    0.000    0.001    0.216    0.233
 qs_vxc_create                        2  8.0    0.003    0.004    0.223    0.232
 eigensolver                          2  6.0    0.000    0.002    0.230    0.232
 xc_vxc_pw_create                     2  9.0    0.008    0.011    0.221    0.230
 calculate_rho_core                   1  5.0    0.007    0.011    0.189    0.208
 cp_fm_redistribute_end               3  8.3    0.178    0.204    0.179    0.204
 calculate_first_density_matrix       1  5.0    0.004    0.007    0.200    0.203
 cp_fm_diag_elpa_base                 3  8.1    0.024    0.197    0.024    0.199
 rs_pw_transfer_PW2RS_530             2 12.0    0.087    0.105    0.177    0.192
 grid_collocate_task_list             3  7.0    0.166    0.179    0.166    0.179
 mp_alltoall_z22v                    32 13.8    0.136    0.173    0.136    0.173
 xc_rho_set_and_dset_create           2 10.0    0.003    0.006    0.156    0.171
 qs_dispersion_pairpot_init           1  3.0    0.008    0.131    0.140    0.163
 cp_fm_cholesky_decompose             1  4.0    0.149    0.154    0.149    0.154
 qs_env_setup                         1  3.0    0.003    0.006    0.132    0.147
 pw_nn_compose_r                     12 10.5    0.065    0.073    0.098    0.145
 mp_bcast_dv                          6  7.7    0.129    0.139    0.129    0.139
 create_qs_kind_set                   1  2.0    0.000    0.001    0.124    0.137
 qs_env_rebuild_pw_env                2  3.5    0.002    0.002    0.123    0.137
 read_qs_kind                         3  3.0    0.044    0.051    0.123    0.137
 pw_env_rebuild                       1  5.0    0.006    0.008    0.121    0.133
 mp_waitall_1                      2397 11.4    0.102    0.131    0.102    0.131
 yz_to_x                             18 12.2    0.014    0.020    0.090    0.117
 xc_functional_eval                   2 11.0    0.000    0.000    0.098    0.110
 pbe_lda_eval                         2 12.0    0.098    0.110    0.098    0.110
 parser_read_line                  9939  4.0    0.004    0.004    0.097    0.110
 parser_read_line_low                15  5.1    0.007    0.057    0.094    0.106
 make_basis_lowdin                    1  6.0    0.003    0.004    0.099    0.103
 broadcast_input_information         15  6.1    0.000    0.000    0.087    0.100
 pw_grid_setup                        5  6.0    0.001    0.003    0.099    0.100
 pw_grid_setup_internal               5  7.0    0.007    0.008    0.098    0.100
 mp_bcast_i                          86  6.0    0.072    0.095    0.072    0.095
 x_to_yz                             14 13.6    0.016    0.020    0.076    0.088
 mp_sendrecv_dm2                     24 11.5    0.033    0.086    0.033    0.086
 read_mo_set_from_restart             1  6.0    0.007    0.074    0.077    0.079
 rs_pw_transfer_PW2RS_180             2 12.0    0.012    0.015    0.056    0.075
 mp_irecv_dm3                        66 10.9    0.041    0.071    0.041    0.071
 build_core_hamiltonian_matrix        1  4.0    0.001    0.003    0.049    0.066
 -------------------------------------------------------------------------------

 The number of warnings for this run is : 1
 
 -------------------------------------------------------------------------------
  **** **** ******  **  PROGRAM ENDED AT                 2025-10-22 11:49:33.405
 ***** ** ***  *** **   PROGRAM RAN ON                                 nid001136
 **    ****   ******    PROGRAM RAN BY                                xr223_ukcp
 ***** **    ** ** **   PROGRAM PROCESS ID                                 69103
  **** **  *******  **  PROGRAM STOPPED IN /mnt/lustre/a2fs-work3/work/e89/e89/x
                                           r223_ukcp/BINDING-ENERGY-DARREN/bindi
                                           ng-energy/2-leg/s+1.00/d+2.50
