LAMMPS data file via write_data, version 4 Feb 2025, timestep = 10000000, units = metal

14640 atoms
3 atom types
4000 bonds
1 bond types
2000 angles
1 angle types

0 154.00799999999998 xlo xhi
0 148.19426709559315 ylo yhi
0 151.07316997686289 zlo zhi

Masses

1 12.01099999691024
2 1.007999999740698
3 15.99899999588435

PairIJ Coeffs # lj/cut/coul/long

1 1 0 1 9
1 2 0 1 9
1 3 0.004551 3.367 9
2 2 0 1 9
2 3 0 1 9
3 3 0.006735 3.166 9

Bond Coeffs # zero

1 1

Angle Coeffs # zero

1 109.47

Atoms # full

1 0 1 0 0 0 0 0 0 0
2 0 1 0 1.426 0 0 0 0 0
5 0 1 0 0 2.4699044515932185 0 0 0 0
6 0 1 0 1.426 2.4699044515932185 0 0 0 0
7 0 1 0 2.139 1.2349522257966092 0 0 0 0
8 0 1 0 3.5649999999999995 1.2349522257966092 0 0 0 0
9 0 1 0 0 4.939808903186437 0 0 0 0
10 0 1 0 1.426 4.939808903186437 0 0 0 0
11 0 1 0 2.139 3.7048566773898277 0 0 0 0
12 0 1 0 3.5649999999999995 3.7048566773898277 0 0 0 0
15 0 1 0 2.139 6.174761128983047 0 0 0 0
16 0 1 0 3.5649999999999995 6.174761128983047 0 0 0 0
241 0 1 0 4.278 0 0 0 0 0
242 0 1 0 5.704 0 0 0 0 0
245 0 1 0 4.278 2.4699044515932185 0 0 0 0
246 0 1 0 5.704 2.4699044515932185 0 0 0 0
247 0 1 0 6.417 1.2349522257966092 0 0 0 0
249 0 1 0 4.278 4.939808903186437 0 0 0 0
250 0 1 0 5.704 4.939808903186437 0 0 0 0
251 0 1 0 6.417 3.7048566773898277 0 0 0 0
255 0 1 0 6.417 6.174761128983047 0 0 0 0
248 0 1 0 7.843 1.2349522257966092 0 0 0 0
252 0 1 0 7.843 3.7048566773898277 0 0 0 0
256 0 1 0 7.843 6.174761128983047 0 0 0 0
481 0 1 0 8.556 0 0 0 0 0
482 0 1 0 9.982000000000001 0 0 0 0 0
485 0 1 0 8.556 2.4699044515932185 0 0 0 0
486 0 1 0 9.982000000000001 2.4699044515932185 0 0 0 0
487 0 1 0 10.694999999999999 1.2349522257966092 0 0 0 0
488 0 1 0 12.120999999999999 1.2349522257966092 0 0 0 0
489 0 1 0 8.556 4.939808903186437 0 0 0 0
490 0 1 0 9.982000000000001 4.939808903186437 0 0 0 0
491 0 1 0 10.694999999999999 3.7048566773898277 0 0 0 0
492 0 1 0 12.120999999999999 3.7048566773898277 0 0 0 0
495 0 1 0 10.694999999999999 6.174761128983047 0 0 0 0
496 0 1 0 12.120999999999999 6.174761128983047 0 0 0 0
721 0 1 0 12.834 0 0 0 0 0
722 0 1 0 14.26 0 0 0 0 0
725 0 1 0 12.834 2.4699044515932185 0 0 0 0
726 0 1 0 14.26 2.4699044515932185 0 0 0 0
727 0 1 0 14.972999999999999 1.2349522257966092 0 0 0 0
729 0 1 0 12.834 4.939808903186437 0 0 0 0
730 0 1 0 14.26 4.939808903186437 0 0 0 0
731 0 1 0 14.972999999999999 3.7048566773898277 0 0 0 0
735 0 1 0 14.972999999999999 6.174761128983047 0 0 0 0
13 0 1 0 0 7.409713354779655 0 0 0 0
14 0 1 0 1.426 7.409713354779655 0 0 0 0
17 0 1 0 0 9.879617806372874 0 0 0 0
18 0 1 0 1.426 9.879617806372874 0 0 0 0
19 0 1 0 2.139 8.644665580576266 0 0 0 0
20 0 1 0 3.5649999999999995 8.644665580576266 0 0 0 0
23 0 1 0 2.139 11.114570032169485 0 0 0 0
24 0 1 0 3.5649999999999995 11.114570032169485 0 0 0 0
253 0 1 0 4.278 7.409713354779655 0 0 0 0
254 0 1 0 5.704 7.409713354779655 0 0 0 0
257 0 1 0 4.278 9.879617806372874 0 0 0 0
258 0 1 0 5.704 9.879617806372874 0 0 0 0
259 0 1 0 6.417 8.644665580576266 0 0 0 0
263 0 1 0 6.417 11.114570032169485 0 0 0 0
260 0 1 0 7.843 8.644665580576266 0 0 0 0
264 0 1 0 7.843 11.114570032169485 0 0 0 0
493 0 1 0 8.556 7.409713354779655 0 0 0 0
494 0 1 0 9.982000000000001 7.409713354779655 0 0 0 0
497 0 1 0 8.556 9.879617806372874 0 0 0 0
498 0 1 0 9.982000000000001 9.879617806372874 0 0 0 0
499 0 1 0 10.694999999999999 8.644665580576266 0 0 0 0
500 0 1 0 12.120999999999999 8.644665580576266 0 0 0 0
503 0 1 0 10.694999999999999 11.114570032169485 0 0 0 0
504 0 1 0 12.120999999999999 11.114570032169485 0 0 0 0
733 0 1 0 12.834 7.409713354779655 0 0 0 0
734 0 1 0 14.26 7.409713354779655 0 0 0 0
737 0 1 0 12.834 9.879617806372874 0 0 0 0
738 0 1 0 14.26 9.879617806372874 0 0 0 0
739 0 1 0 14.972999999999999 8.644665580576266 0 0 0 0
743 0 1 0 14.972999999999999 11.114570032169485 0 0 0 0
21 0 1 0 0 12.349522257966095 0 0 0 0
22 0 1 0 1.426 12.349522257966095 0 0 0 0
25 0 1 0 0 14.81942670955931 0 0 0 0
26 0 1 0 1.426 14.81942670955931 0 0 0 0
27 0 1 0 2.139 13.584474483762703 0 0 0 0
28 0 1 0 3.5649999999999995 13.584474483762703 0 0 0 0
29 0 1 0 0 17.289331161152532 0 0 0 0
30 0 1 0 1.426 17.289331161152532 0 0 0 0
31 0 1 0 2.139 16.054378935355924 0 0 0 0
32 0 1 0 3.5649999999999995 16.054378935355924 0 0 0 0
261 0 1 0 4.278 12.349522257966095 0 0 0 0
262 0 1 0 5.704 12.349522257966095 0 0 0 0
265 0 1 0 4.278 14.81942670955931 0 0 0 0
266 0 1 0 5.704 14.81942670955931 0 0 0 0
267 0 1 0 6.417 13.584474483762703 0 0 0 0
269 0 1 0 4.278 17.289331161152532 0 0 0 0
270 0 1 0 5.704 17.289331161152532 0 0 0 0
271 0 1 0 6.417 16.054378935355924 0 0 0 0
507 0 1 0 10.694999999999999 13.584474483762703 0 0 0 0
509 0 1 0 8.556 17.289331161152532 0 0 0 0
501 0 1 0 8.556 12.349522257966095 0 0 0 0
747 0 1 0 14.972999999999999 13.584474483762703 0 0 0 0
272 0 1 0 7.843 16.054378935355924 0 0 0 0
512 0 1 0 12.120999999999999 16.054378935355924 0 0 0 0
751 0 1 0 14.972999999999999 16.054378935355924 0 0 0 0
502 0 1 0 9.982000000000001 12.349522257966095 0 0 0 0
741 0 1 0 12.834 12.349522257966095 0 0 0 0
746 0 1 0 14.26 14.81942670955931 0 0 0 0
508 0 1 0 12.120999999999999 13.584474483762703 0 0 0 0
745 0 1 0 12.834 14.81942670955931 0 0 0 0
742 0 1 0 14.26 12.349522257966095 0 0 0 0
750 0 1 0 14.26 17.289331161152532 0 0 0 0
505 0 1 0 8.556 14.81942670955931 0 0 0 0
510 0 1 0 9.982000000000001 17.289331161152532 0 0 0 0
749 0 1 0 12.834 17.289331161152532 0 0 0 0
511 0 1 0 10.694999999999999 16.054378935355924 0 0 0 0
268 0 1 0 7.843 13.584474483762703 0 0 0 0
506 0 1 0 9.982000000000001 14.81942670955931 0 0 0 0
33 0 1 0 0 19.759235612745748 0 0 0 0
34 0 1 0 1.426 19.759235612745748 0 0 0 0
35 0 1 0 2.139 18.524283386949143 0 0 0 0
36 0 1 0 3.5649999999999995 18.524283386949143 0 0 0 0
37 0 1 0 0 22.22914006433897 0 0 0 0
38 0 1 0 1.426 22.22914006433897 0 0 0 0
39 0 1 0 2.139 20.994187838542363 0 0 0 0
40 0 1 0 3.5649999999999995 20.994187838542363 0 0 0 0
41 0 1 0 0 24.69904451593219 0 0 0 0
42 0 1 0 1.426 24.69904451593219 0 0 0 0
43 0 1 0 2.139 23.464092290135582 0 0 0 0
44 0 1 0 3.5649999999999995 23.464092290135582 0 0 0 0
273 0 1 0 4.278 19.759235612745748 0 0 0 0
274 0 1 0 5.704 19.759235612745748 0 0 0 0
275 0 1 0 6.417 18.524283386949143 0 0 0 0
277 0 1 0 4.278 22.22914006433897 0 0 0 0
278 0 1 0 5.704 22.22914006433897 0 0 0 0
279 0 1 0 6.417 20.994187838542363 0 0 0 0
281 0 1 0 4.278 24.69904451593219 0 0 0 0
282 0 1 0 5.704 24.69904451593219 0 0 0 0
283 0 1 0 6.417 23.464092290135582 0 0 0 0
276 0 1 0 7.843 18.524283386949143 0 0 0 0
280 0 1 0 7.843 20.994187838542363 0 0 0 0
284 0 1 0 7.843 23.464092290135582 0 0 0 0
513 0 1 0 8.556 19.759235612745748 0 0 0 0
514 0 1 0 9.982000000000001 19.759235612745748 0 0 0 0
515 0 1 0 10.694999999999999 18.524283386949143 0 0 0 0
516 0 1 0 12.120999999999999 18.524283386949143 0 0 0 0
517 0 1 0 8.556 22.22914006433897 0 0 0 0
518 0 1 0 9.982000000000001 22.22914006433897 0 0 0 0
519 0 1 0 10.694999999999999 20.994187838542363 0 0 0 0
520 0 1 0 12.120999999999999 20.994187838542363 0 0 0 0
521 0 1 0 8.556 24.69904451593219 0 0 0 0
522 0 1 0 9.982000000000001 24.69904451593219 0 0 0 0
523 0 1 0 10.694999999999999 23.464092290135582 0 0 0 0
524 0 1 0 12.120999999999999 23.464092290135582 0 0 0 0
753 0 1 0 12.834 19.759235612745748 0 0 0 0
754 0 1 0 14.26 19.759235612745748 0 0 0 0
755 0 1 0 14.972999999999999 18.524283386949143 0 0 0 0
757 0 1 0 12.834 22.22914006433897 0 0 0 0
758 0 1 0 14.26 22.22914006433897 0 0 0 0
759 0 1 0 14.972999999999999 20.994187838542363 0 0 0 0
761 0 1 0 12.834 24.69904451593219 0 0 0 0
762 0 1 0 14.26 24.69904451593219 0 0 0 0
763 0 1 0 14.972999999999999 23.464092290135582 0 0 0 0
45 0 1 0 0 27.16894896752541 0 0 0 0
46 0 1 0 1.426 27.16894896752541 0 0 0 0
47 0 1 0 2.139 25.933996741728798 0 0 0 0
48 0 1 0 3.5649999999999995 25.933996741728798 0 0 0 0
49 0 1 0 0 29.63885341911862 0 0 0 0
50 0 1 0 1.426 29.63885341911862 0 0 0 0
51 0 1 0 2.139 28.403901193322017 0 0 0 0
52 0 1 0 3.5649999999999995 28.403901193322017 0 0 0 0
285 0 1 0 4.278 27.16894896752541 0 0 0 0
286 0 1 0 5.704 27.16894896752541 0 0 0 0
287 0 1 0 6.417 25.933996741728798 0 0 0 0
289 0 1 0 4.278 29.63885341911862 0 0 0 0
290 0 1 0 5.704 29.63885341911862 0 0 0 0
291 0 1 0 6.417 28.403901193322017 0 0 0 0
9641 0 2 0.4238 4.208955278303841 31.4675553596565 3.38259895217031 0 2 0
13141 0 3 -0.8476 4.34027342151319 30.510410291113253 3.640725717377229 0 2 0
9690 0 2 0.4238 7.677327788436739 28.921227644846912 4.614466501770473 0 2 0
9642 0 2 0.4238 4.3178263440902445 29.938037574116 2.821039421158049 0 2 0
13880 0 3 -0.8476 4.35610299303232 33.222542200896456 3.0676761608999636 0 2 0
11119 0 2 0.4238 4.782777779085966 33.93574543552514 2.511537941577967 0 2 0
13165 0 3 -0.8476 8.173490467335556 29.515515350103712 3.981501495315855 0 2 0
12031 0 2 0.4238 10.364132595989876 29.700992777129535 2.820753736179223 0 2 0
12032 0 2 0.4238 11.357782955457884 29.497353651170233 4.100525841606409 0 2 0
14336 0 3 -0.8476 11.245630084603013 29.95526750733453 3.2186316085991367 0 2 0
288 0 1 0 7.843 25.933996741728798 0 0 0 0
292 0 1 0 7.843 28.403901193322017 0 0 0 0
525 0 1 0 8.556 27.16894896752541 0 0 0 0
526 0 1 0 9.982000000000001 27.16894896752541 0 0 0 0
527 0 1 0 10.694999999999999 25.933996741728798 0 0 0 0
528 0 1 0 12.120999999999999 25.933996741728798 0 0 0 0
529 0 1 0 8.556 29.63885341911862 0 0 0 0
530 0 1 0 9.982000000000001 29.63885341911862 0 0 0 0
531 0 1 0 10.694999999999999 28.403901193322017 0 0 0 0
532 0 1 0 12.120999999999999 28.403901193322017 0 0 0 0
765 0 1 0 12.834 27.16894896752541 0 0 0 0
766 0 1 0 14.26 27.16894896752541 0 0 0 0
767 0 1 0 14.972999999999999 25.933996741728798 0 0 0 0
769 0 1 0 12.834 29.63885341911862 0 0 0 0
770 0 1 0 14.26 29.63885341911862 0 0 0 0
771 0 1 0 14.972999999999999 28.403901193322017 0 0 0 0
13599 0 3 -0.8476 14.478846345264603 29.156433656579363 3.865516378999615 0 2 0
10558 0 2 0.4238 13.70028852895264 29.18664602847294 3.2386711364187617 0 2 0
9927 0 2 0.4238 12.009735371724311 36.810510230554875 17.01456045951837 0 2 0
10640 0 2 0.4238 10.637415234814048 34.97059976933506 17.02731394306176 0 2 0
9278 0 2 0.4238 14.947421650971016 25.87743123650806 12.473608827367261 0 2 0
10956 0 2 0.4238 10.510430741612769 36.75524869148118 10.811046267184537 0 2 0
11120 0 2 0.4238 3.3916399125163155 33.44425425104808 3.2113938179929855 0 2 0
13531 0 3 -0.8476 2.110349630378161 34.490442805811114 3.8249850048837657 0 2 0
53 0 1 0 0 32.10875787071185 0 0 0 0
54 0 1 0 1.426 32.10875787071185 0 0 0 0
55 0 1 0 2.139 30.87380564491524 0 0 0 0
56 0 1 0 3.5649999999999995 30.87380564491524 0 0 0 0
57 0 1 0 0 34.578662322305064 0 0 0 0
58 0 1 0 1.426 34.578662322305064 0 0 0 0
59 0 1 0 2.139 33.34371009650845 0 0 0 0
60 0 1 0 3.5649999999999995 33.34371009650845 0 0 0 0
63 0 1 0 2.139 35.813614548101675 0 0 0 0
64 0 1 0 3.5649999999999995 35.813614548101675 0 0 0 0
293 0 1 0 4.278 32.10875787071185 0 0 0 0
294 0 1 0 5.704 32.10875787071185 0 0 0 0
295 0 1 0 6.417 30.87380564491524 0 0 0 0
297 0 1 0 4.278 34.578662322305064 0 0 0 0
298 0 1 0 5.704 34.578662322305064 0 0 0 0
299 0 1 0 6.417 33.34371009650845 0 0 0 0
303 0 1 0 6.417 35.813614548101675 0 0 0 0
13156 0 3 -0.8476 7.08427596915108 35.53743907807049 5.495329924081526 0 2 0
9672 0 2 0.4238 6.856896134454091 34.7754904693175 4.888919629641735 0 2 0
9671 0 2 0.4238 7.3615324332375875 36.32740099671464 4.948439122898963 0 2 0
10421 0 2 0.4238 1.4540081135127718 33.9514835406383 4.352942150283192 0 2 0
10422 0 2 0.4238 2.5540958684368062 35.15616381674329 4.424905686769437 0 2 0
9439 0 2 0.4238 6.111986471890571 33.0888245868451 3.6257377069691135 0 2 0
9232 0 2 0.4238 13.876390018373979 26.9910285769944 6.731587110937562 0 2 0
9902 0 2 0.4238 14.316417064783192 32.58711800025962 15.366527655516688 0 2 0
9440 0 2 0.4238 7.616636387579689 32.48526596544522 3.4298495662033286 0 2 0
13040 0 3 -0.8476 7.084753855848247 33.2510958222634 3.7912437137770603 0 2 0
12959 0 3 -0.8476 14.752015422839538 26.49044041025863 11.708078757740594 0 2 0
12212 0 2 0.4238 5.622646755165624 31.73366856361238 5.148046579026858 0 2 0
8805 0 2 0.4238 12.122511632699482 31.40860244889866 3.0871221987012976 0 2 0
10349 0 2 0.4238 14.223509854894274 32.46194491591376 3.364133022032806 -11 -2 0
11764 0 2 0.4238 14.944331002058654 34.21752554743333 4.999635591517953 0 2 0
12723 0 3 -0.8476 12.584780434791568 32.288250846092616 3.199042207830132 0 2 0
10176 0 2 0.4238 9.34835654065919 33.88451627873603 3.508769252643689 0 2 0
8997 0 2 0.4238 12.391810294884179 35.73927261202491 3.0306681567204166 0 2 0
8998 0 2 0.4238 13.315083352716051 34.48169380137585 2.5482893842418144 0 2 0
13408 0 3 -0.8476 10.330728561496112 33.82136814896016 3.3328200345712444 0 2 0
10175 0 2 0.4238 10.764879496301164 34.69600158833294 3.5485292503568537 0 2 0
12819 0 3 -0.8476 13.315449265746356 35.356019896207535 3.0336281281343647 0 2 0
296 0 1 0 7.843 30.87380564491524 0 0 0 0
543 0 1 0 10.694999999999999 35.813614548101675 0 0 0 0
535 0 1 0 10.694999999999999 30.87380564491524 0 0 0 0
537 0 1 0 8.556 34.578662322305064 0 0 0 0
539 0 1 0 10.694999999999999 33.34371009650845 0 0 0 0
775 0 1 0 14.972999999999999 30.87380564491524 0 0 0 0
774 0 1 0 14.26 32.10875787071185 0 0 0 0
534 0 1 0 9.982000000000001 32.10875787071185 0 0 0 0
779 0 1 0 14.972999999999999 33.34371009650845 0 0 0 0
783 0 1 0 14.972999999999999 35.813614548101675 0 0 0 0
778 0 1 0 14.26 34.578662322305064 0 0 0 0
777 0 1 0 12.834 34.578662322305064 0 0 0 0
538 0 1 0 9.982000000000001 34.578662322305064 0 0 0 0
773 0 1 0 12.834 32.10875787071185 0 0 0 0
533 0 1 0 8.556 32.10875787071185 0 0 0 0
300 0 1 0 7.843 33.34371009650845 0 0 0 0
544 0 1 0 12.120999999999999 35.813614548101675 0 0 0 0
304 0 1 0 7.843 35.813614548101675 0 0 0 0
536 0 1 0 12.120999999999999 30.87380564491524 0 0 0 0
540 0 1 0 12.120999999999999 33.34371009650845 0 0 0 0
8806 0 2 0.4238 11.910119584349143 33.02570963654168 3.1676212420297354 0 2 0
10243 0 2 0.4238 11.355466440136697 33.03203587821188 5.290751216831137 0 2 0
14146 0 3 -0.8476 10.926671338817679 36.51965412107591 3.8926666840506137 0 2 0
11652 0 2 0.4238 11.041586472466866 36.315300751896125 4.86479536581204 0 2 0
11905 0 2 0.4238 11.093518324386467 36.3364656932786 13.145338227191894 0 2 0
13798 0 3 -0.8476 9.713955976999321 36.89910273168737 10.223735276804149 0 2 0
12609 0 2 0.4238 14.217971032263891 36.6339798778346 15.509841199702075 0 2 0
10383 0 2 0.4238 6.090904112448672 32.87393844740416 15.132475372899759 0 2 0
10138 0 2 0.4238 14.727259246510826 36.397265874999704 3.113750326024749 0 2 0
10065 0 2 0.4238 0.32278311395515663 34.160773845154885 7.673933876777959 0 2 0
9076 0 2 0.4238 4.345700845572029 28.808578348873823 5.353203614737221 0 2 0
12858 0 3 -0.8476 4.687927227145462 28.917269709267547 6.286513444048076 0 2 0
9075 0 2 0.4238 5.683567042675427 28.824032294896778 6.289420387764151 0 2 0
13750 0 3 -0.8476 7.469933060671441 29.079797255911433 6.990811536247 0 2 0
10859 0 2 0.4238 8.162647856455758 29.793296240891376 6.885616255983907 0 2 0
10860 0 2 0.4238 7.660545432374856 28.549370199813552 7.816834669889743 0 2 0
12211 0 2 0.4238 5.25471741694687 30.712164751638653 6.367793806584385 0 2 0
9689 0 2 0.4238 8.972115374126048 29.901457053896262 4.443288552770523 0 2 0
9485 0 2 0.4238 14.240929846125908 30.77225472435657 5.501541265386442 0 2 0
9543 0 2 0.4238 12.226261374039037 27.988009508671002 6.058473389013236 0 2 0
14252 0 3 -0.8476 9.760238083974924 30.36070456200235 5.884048222222099 0 2 0
9231 0 2 0.4238 13.425526890502871 27.85285665905729 8.043304160670731 0 2 0
12936 0 3 -0.8476 13.121649606230276 27.193556942622145 7.355566332479068 0 2 0
9544 0 2 0.4238 11.462099398483174 27.119987642222824 4.905554960880203 0 2 0
13092 0 3 -0.8476 11.502865631010941 28.00556043123666 5.368262894819507 0 2 0
13008 0 3 -0.8476 14.360243288719966 29.00433512830364 13.194544391337903 0 2 0
11864 0 2 0.4238 10.391848026500996 29.62581627605304 6.131047890219846 0 2 0
11863 0 2 0.4238 10.117999930418948 31.233412951325636 6.216293374655242 0 2 0
14513 0 3 -0.8476 11.78015944436957 30.606595722110978 10.294096545340777 1 2 0
14167 0 3 -0.8476 10.744803746532293 28.719942701961127 8.27925186103261 0 2 0
11694 0 2 0.4238 11.100802203201992 28.9994292265913 9.170965081094193 0 2 0
11693 0 2 0.4238 11.238243008096328 27.90995258026239 7.962338956755095 0 2 0
12955 0 3 -0.8476 13.678118151997989 29.69245427756004 8.741296394965472 0 2 0
9270 0 2 0.4238 13.074185786167526 30.26353218369988 9.297296139428406 0 2 0
13063 0 3 -0.8476 13.96131302994461 31.20084516160778 6.360683267751176 0 2 0
12386 0 2 0.4238 11.200382300095608 31.254322539960775 9.799819676903258 1 2 0
9486 0 2 0.4238 14.068851809355909 30.547136981790768 7.109750784496283 0 2 0
9375 0 2 0.4238 14.3984021286402 28.048688722212063 12.902509348170538 0 2 0
9376 0 2 0.4238 13.544650949043287 29.14937447163792 13.754698623623112 0 2 0
13495 0 3 -0.8476 15.209734506767534 32.55905569954624 3.4980374632230724 -11 -2 0
9269 0 2 0.4238 14.607796261329181 29.73580674144446 9.107109258348448 0 2 0
11599 0 2 0.4238 5.641069864658051 36.36894657416813 6.244126826504479 0 2 0
14120 0 3 -0.8476 5.015591725923282 36.796993771511346 6.896470826303877 0 2 0
9975 0 2 0.4238 7.6045413540159785 33.81228499117249 6.600214078136885 0 2 0
10066 0 2 0.4238 1.8940241263059046 34.31704595640325 7.257512057146885 0 2 0
13353 0 3 -0.8476 1.0131288555554845 34.78721074868157 7.311995292887522 0 2 0
14426 0 3 -0.8476 5.5134008203687035 31.65053716707509 6.138578972986481 0 2 0
9976 0 2 0.4238 6.927039307569101 32.368007051437125 6.949038629586579 0 2 0
13308 0 3 -0.8476 7.537366159377112 33.08580222949974 7.284107538969754 0 2 0
10986 0 2 0.4238 15.115533062799349 27.85725022166631 5.033090417617065 0 2 0
12380 0 2 0.4238 7.679533496554464 33.97348221442903 9.041150850648869 -3 3 0
11524 0 2 0.4238 4.097251853100402 32.89575011422808 6.993972375904328 0 2 0
14510 0 3 -0.8476 8.13303847734636 34.583301891624494 9.691115205495624 -3 3 0
12379 0 2 0.4238 7.7326562146626125 34.45986133738595 10.599111015096756 -3 3 0
14082 0 3 -0.8476 3.515525230411517 33.70337149056455 7.09062801721185 0 2 0
11523 0 2 0.4238 4.084813816014056 34.50354669047551 7.279387970233939 0 2 0
9724 0 2 0.4238 7.646361688345592 34.071388778902694 16.88425256360605 0 2 0
10803 0 2 0.4238 9.599166098592429 34.45418562170565 13.73764349432588 0 2 0
13795 0 3 -0.8476 6.947786205098288 36.99576397163659 15.58304068801687 4 -5 0
10804 0 2 0.4238 9.167096663888382 33.32573715175356 14.836072617733883 0 2 0
13442 0 3 -0.8476 11.426661952678536 32.665295889461795 6.218346664760109 0 2 0
10244 0 2 0.4238 12.386398505670133 32.4827323598437 6.431834548542758 0 2 0
9687 0 2 0.4238 14.66228483801517 30.518302109349552 11.790350072890849 0 2 0
10213 0 2 0.4238 7.103260762275221 36.60864767513503 8.75988859349293 0 2 0
10955 0 2 0.4238 9.316956806756265 36.01479194147969 9.977997245167295 0 2 0
12600 0 2 0.4238 0.4323861475695151 36.603677570838144 6.7948557280592015 0 2 0
9351 0 2 0.4238 9.274333860428516 32.49934307866451 8.588347671353239 0 2 0
9847 0 2 0.4238 14.43183612774813 36.12582584046767 6.380875625462136 0 2 0
12198 0 2 0.4238 14.934654945956979 33.48119829309998 8.367633303563396 0 2 0
12385 0 2 0.4238 11.596229744123905 30.675597951726523 11.274611105290166 1 2 0
13244 0 3 -0.8476 13.809680767461423 36.62502672396017 6.983968551484004 0 2 0
9688 0 2 0.4238 14.714268943914774 32.08354660739119 11.327820085407643 0 2 0
12996 0 3 -0.8476 10.196483274124935 32.11581894384813 8.63883977167999 0 2 0
9352 0 2 0.4238 10.658890554962948 32.24303000355678 7.761345345593976 0 2 0
9723 0 2 0.4238 7.882252462080643 35.44435492506296 16.032227829169493 0 2 0
14273 0 3 -0.8476 10.51496534400225 36.41249587445005 13.957432140022027 0 2 0
14462 0 3 -0.8476 5.821760389930756 36.959220042449076 12.421368042899374 0 2 0
12235 0 2 0.4238 12.145001638625 35.63499700498249 11.418284485698722 0 2 0
14438 0 3 -0.8476 12.47912544877294 36.500647663179286 11.791125155714147 0 2 0
10248 0 2 0.4238 12.263007473951676 36.227488644780315 6.688212942247142 0 2 0
10247 0 2 0.4238 11.036297973433543 35.21029542688921 7.044763423125961 0 2 0
13444 0 3 -0.8476 11.368237131399773 35.89235161465071 6.393137970554236 0 2 0
9100 0 2 0.4238 10.837906136066403 33.6059457770019 9.869700282577297 0 2 0
13182 0 3 -0.8476 8.265599880656094 34.549664524857725 16.261519432836806 0 2 0
9099 0 2 0.4238 11.194087689793484 33.35128971691882 11.442885336964034 0 2 0
9645 0 2 0.4238 14.387230474635206 34.69889820359248 10.533281944482217 0 2 0
9646 0 2 0.4238 13.0138050551457 33.91136800667473 10.133125562427894 0 2 0
13143 0 3 -0.8476 14.011424902015236 33.89905817864313 10.065279660378927 0 2 0
11367 0 2 0.4238 5.167047191960414 35.75997459742634 15.416149431769107 0 2 0
12870 0 3 -0.8476 11.039251722786616 34.048902821983354 10.743341451371014 0 2 0
13666 0 3 -0.8476 15.048702259894863 36.29383671202078 12.572086262051085 0 2 0
12236 0 2 0.4238 13.418050590815344 36.38386562479689 12.114824886334766 0 2 0
12197 0 2 0.4238 14.857954691302616 32.27636867922865 7.268028886580124 0 2 0
9901 0 2 0.4238 12.8554714959914 33.23708327047477 15.69790330679678 0 2 0
14004 0 3 -0.8476 4.8507861551111535 35.25571419800175 14.612594524052069 0 2 0
13722 0 3 -0.8476 9.457794051872916 33.476204756495 13.891162345433033 0 2 0
11368 0 2 0.4238 5.29361053418873 35.62147485867352 13.793982342069832 0 2 0
10692 0 2 0.4238 14.988023205182332 35.93732303547294 13.504404172933814 0 2 0
14625 0 3 -0.8476 14.380573612159163 35.647374876960214 15.522961050381262 0 2 0
13828 0 3 -0.8476 11.478942960269407 32.2696490557284 12.76405118744533 0 2 0
11016 0 2 0.4238 10.594676817192566 32.5723964528175 13.119603529204012 0 2 0
13271 0 3 -0.8476 13.35112451954175 32.601709934809556 15.105764154679429 0 2 0
13512 0 3 -0.8476 6.30515062738448 32.48669887208682 16.029216062518017 0 2 0
11015 0 2 0.4238 12.188065467172349 32.43489212575531 13.449499914072483 0 2 0
10384 0 2 0.4238 5.481856999742658 32.07476099771617 16.41972184805387 0 2 0
10557 0 2 0.4238 15.307275306089952 29.439024717370863 3.381937744007633 0 2 0
10639 0 2 0.4238 10.877738180557955 35.74952108023771 15.61233941990429 0 2 0
12610 0 2 0.4238 13.540333717696058 35.174586833543344 15.788420452648134 0 2 0
13640 0 3 -0.8476 11.319565761577492 35.40958791226584 16.442540460165844 0 2 0
13164 0 3 -0.8476 15.080443708825703 31.168918353815997 11.156439877449769 0 2 0
61 0 1 0 0 37.04856677389829 0 0 0 0
62 0 1 0 1.426 37.04856677389829 0 0 0 0
65 0 1 0 0 39.518471225491496 0 0 0 0
66 0 1 0 1.426 39.518471225491496 0 0 0 0
67 0 1 0 2.139 38.28351899969489 0 0 0 0
68 0 1 0 3.5649999999999995 38.28351899969489 0 0 0 0
69 0 1 0 0 41.98837567708472 0 0 0 0
70 0 1 0 1.426 41.98837567708472 0 0 0 0
71 0 1 0 2.139 40.7534234512881 0 0 0 0
72 0 1 0 3.5649999999999995 40.7534234512881 0 0 0 0
75 0 1 0 2.139 43.22332790288133 0 0 0 0
76 0 1 0 3.5649999999999995 43.22332790288133 0 0 0 0
301 0 1 0 4.278 37.04856677389829 0 0 0 0
302 0 1 0 5.704 37.04856677389829 0 0 0 0
305 0 1 0 4.278 39.518471225491496 0 0 0 0
306 0 1 0 5.704 39.518471225491496 0 0 0 0
307 0 1 0 6.417 38.28351899969489 0 0 0 0
309 0 1 0 4.278 41.98837567708472 0 0 0 0
310 0 1 0 5.704 41.98837567708472 0 0 0 0
311 0 1 0 6.417 40.7534234512881 0 0 0 0
315 0 1 0 6.417 43.22332790288133 0 0 0 0
11390 0 2 0.4238 2.5111740066862382 42.57364054808104 2.9180571026713986 0 2 0
11389 0 2 0.4238 1.4243385229781615 41.35591905121964 2.8673689341512962 0 2 0
14015 0 3 -0.8476 2.374018900569407 41.59480656067296 3.069951910634475 0 2 0
12553 0 2 0.4238 3.393331387028074 39.9647763310034 2.5840301119568956 0 2 0
13299 0 3 -0.8476 6.134281539746551 41.294666219784936 3.8577002270033547 0 2 0
9958 0 2 0.4238 5.394869816542194 40.78017438724085 3.423455602658311 0 2 0
14597 0 3 -0.8476 4.032172679506791 39.320330776828186 3.0042348838042514 0 2 0
8798 0 2 0.4238 5.744736592055822 43.124393315104385 4.055341619687176 0 2 0
8797 0 2 0.4238 5.9338768327613165 44.170531095982845 5.294877073886878 0 2 0
12554 0 2 0.4238 3.52637308672191 38.536225471242176 3.363882060480955 0 2 0
12699 0 3 -0.8476 3.1859120385955886 37.880802014983075 5.200393949117933 0 2 0
9957 0 2 0.4238 6.963332835124067 40.73578556579153 3.8757602072455968 0 2 0
14014 0 3 -0.8476 6.238990953551061 41.30555740836527 6.894642790231578 0 2 0
9325 0 2 0.4238 1.4801172229650914 55.541673908397215 5.992561537966312 0 2 0
11388 0 2 0.4238 6.3743058753567565 41.46395229092606 5.916582651306312 0 2 0
11387 0 2 0.4238 6.715727627502569 42.013302001016584 7.416006792606359 0 2 0
308 0 1 0 7.843 38.28351899969489 0 0 0 0
312 0 1 0 7.843 40.7534234512881 0 0 0 0
316 0 1 0 7.843 43.22332790288133 0 0 0 0
541 0 1 0 8.556 37.04856677389829 0 0 0 0
542 0 1 0 9.982000000000001 37.04856677389829 0 0 0 0
545 0 1 0 8.556 39.518471225491496 0 0 0 0
546 0 1 0 9.982000000000001 39.518471225491496 0 0 0 0
547 0 1 0 10.694999999999999 38.28351899969489 0 0 0 0
548 0 1 0 12.120999999999999 38.28351899969489 0 0 0 0
549 0 1 0 8.556 41.98837567708472 0 0 0 0
550 0 1 0 9.982000000000001 41.98837567708472 0 0 0 0
551 0 1 0 10.694999999999999 40.7534234512881 0 0 0 0
552 0 1 0 12.120999999999999 40.7534234512881 0 0 0 0
555 0 1 0 10.694999999999999 43.22332790288133 0 0 0 0
556 0 1 0 12.120999999999999 43.22332790288133 0 0 0 0
781 0 1 0 12.834 37.04856677389829 0 0 0 0
782 0 1 0 14.26 37.04856677389829 0 0 0 0
785 0 1 0 12.834 39.518471225491496 0 0 0 0
786 0 1 0 14.26 39.518471225491496 0 0 0 0
787 0 1 0 14.972999999999999 38.28351899969489 0 0 0 0
789 0 1 0 12.834 41.98837567708472 0 0 0 0
790 0 1 0 14.26 41.98837567708472 0 0 0 0
791 0 1 0 14.972999999999999 40.7534234512881 0 0 0 0
795 0 1 0 14.972999999999999 43.22332790288133 0 0 0 0
13064 0 3 -0.8476 11.0841672598652 39.168319746533896 3.208399464605903 0 2 0
13997 0 3 -0.8476 12.538294042697997 41.15245902929119 4.144394609448755 0 2 0
11353 0 2 0.4238 12.526104174097787 42.12671909858318 4.369491470297059 0 2 0
11354 0 2 0.4238 13.472689490499295 40.87310464462677 3.9233374519747115 0 2 0
9487 0 2 0.4238 11.477245975233451 39.17843574974622 2.2889502964244373 0 2 0
11556 0 2 0.4238 9.330007502040452 42.502827331471345 5.860971081358968 0 2 0
10084 0 2 0.4238 6.538568811398862 53.731755205138924 16.138895876260815 0 2 0
9488 0 2 0.4238 11.48650652984615 39.905661537738276 3.751032136211447 0 2 0
10509 0 2 0.4238 13.597908588364563 39.80959827395289 6.368027518041572 0 2 0
13575 0 3 -0.8476 14.320617122745047 39.13020318012349 6.241083342679765 0 2 0
14046 0 3 -0.8476 9.705144605858122 40.910672760288534 6.100963639679795 0 2 0
11452 0 2 0.4238 10.615765047127006 40.503618776852704 6.029705244321603 0 2 0
10137 0 2 0.4238 14.726684652386652 37.85137236692439 3.856852136149345 0 2 0
8758 0 2 0.4238 3.8723441887814096 37.606004468134586 5.873667463993239 0 2 0
12047 0 2 0.4238 10.058747951724747 54.709540918057115 13.828633710280558 0 2 0
12719 0 3 -0.8476 5.631194502954756 44.07425725010129 4.346660467978385 0 2 0
13207 0 3 -0.8476 0.5624646827135283 41.59091859014915 10.279324602653372 0 2 0
12642 0 3 -0.8476 3.067911623501786 44.33248785781965 3.462382124660072 0 2 0
8644 0 2 0.4238 4.028458070128072 44.118930024391226 3.6405483113845656 0 2 0
73 0 1 0 0 44.45828012867794 0 0 0 0
74 0 1 0 1.426 44.45828012867794 0 0 0 0
77 0 1 0 0 46.92818458027115 0 0 0 0
78 0 1 0 1.426 46.92818458027115 0 0 0 0
79 0 1 0 2.139 45.693232354474546 0 0 0 0
80 0 1 0 3.5649999999999995 45.693232354474546 0 0 0 0
81 0 1 0 0 49.39808903186438 0 0 0 0
82 0 1 0 1.426 49.39808903186438 0 0 0 0
83 0 1 0 2.139 48.16313680606777 0 0 0 0
84 0 1 0 3.5649999999999995 48.16313680606777 0 0 0 0
313 0 1 0 4.278 44.45828012867794 0 0 0 0
314 0 1 0 5.704 44.45828012867794 0 0 0 0
317 0 1 0 4.278 46.92818458027115 0 0 0 0
318 0 1 0 5.704 46.92818458027115 0 0 0 0
319 0 1 0 6.417 45.693232354474546 0 0 0 0
321 0 1 0 4.278 49.39808903186438 0 0 0 0
322 0 1 0 5.704 49.39808903186438 0 0 0 0
323 0 1 0 6.417 48.16313680606777 0 0 0 0
11664 0 2 0.4238 5.794999181973709 45.97960342414886 3.725192215448353 -2 -2 0
13885 0 3 -0.8476 4.424546630247942 49.297306247916445 3.495885547405208 0 2 0
9974 0 2 0.4238 3.322931225346811 47.490448176049966 4.439197643805055 0 2 0
13307 0 3 -0.8476 2.5041017914935053 46.9885999461532 4.1605097273378835 0 2 0
8643 0 2 0.4238 2.885830293142455 45.283312591952125 3.7129384939581502 0 2 0
11129 0 2 0.4238 4.949288215968931 48.511462369985246 3.168631017562042 0 2 0
9973 0 2 0.4238 1.7413134171181501 47.62681726482269 4.056424653057025 0 2 0
12590 0 2 0.4238 3.3012910117232073 47.459611880981484 8.619033294351711 0 2 0
14152 0 3 -0.8476 6.143514051044077 46.87758005822384 3.4565352333658113 -2 -2 0
11663 0 2 0.4238 7.108179215033489 46.79911316967193 3.205010938253159 -2 -2 0
10356 0 2 0.4238 1.4327841366616347 46.20798286252997 5.763130628100867 0 2 0
11609 0 2 0.4238 1.0503308768116035 44.12933148722463 3.3304314713885113 0 2 0
9151 0 2 0.4238 1.4545603108559912 49.75263560799215 4.5339109948926195 0 2 0
9345 0 2 0.4238 5.346379342470165 47.5166202661585 5.062664638166147 -39 15 0
12283 0 2 0.4238 6.802318643691754 37.148340596769096 12.473706461803356 0 2 0
13498 0 3 -0.8476 0.6449285912165316 45.59384988776942 5.809229290038152 0 2 0
13843 0 3 -0.8476 15.275921398893807 47.21596737167773 18.860618175757864 0 2 0
9305 0 2 0.4238 12.100879182938948 43.498473905948416 5.841098349156058 0 2 0
14098 0 3 -0.8476 8.906049045223469 43.393647211825495 5.697567726433254 0 2 0
12973 0 3 -0.8476 12.248248283437041 43.69407288549062 4.871550311364573 0 2 0
13488 0 3 -0.8476 10.264365885865686 47.45455672969531 3.412043344012452 0 2 0
10336 0 2 0.4238 9.417815369618552 47.95875364098946 3.5827404833753818 0 2 0
11517 0 2 0.4238 9.054383231461843 44.25906382592043 4.005685920650085 0 2 0
8977 0 2 0.4238 8.623662096655519 48.83536644113941 5.631692154134117 0 2 0