LAMMPS (4 Feb 2025)
OMP_NUM_THREADS environment is not set. Defaulting to 1 thread. (src/comm.cpp:99)
  using 1 OpenMP thread(s) per MPI task
# LAMMPS script for running NVT simulation

units       metal                   # Energies in eV, distances in A
dimension   3
boundary    p p p
atom_style  full

bond_style   zero
angle_style  zero
pair_style   lj/cut/coul/long 9.0
kspace_style pppm 1.0e-5
read_data    ../equi_final.lammps-data
Reading data file ...
  orthogonal box = (0 0 0) to (154.008 148.19427 151.07317)
  10 by 8 by 8 MPI processor grid
  reading atoms ...
  22680 atoms
  reading velocities ...
  22680 velocities
  scanning bonds ...
  2 = max bonds/atom
  scanning angles ...
  1 = max angles/atom
  orthogonal box = (0 0 0) to (154.008 148.19427 151.07317)
  10 by 8 by 8 MPI processor grid
  reading bonds ...
  9360 bonds
  reading angles ...
  4680 angles
Finding 1-2 1-3 1-4 neighbors ...
  special bond factors lj:    0        0        0       
  special bond factors coul:  0        0        0       
     2 = max # of 1-2 neighbors
     1 = max # of 1-3 neighbors
     1 = max # of 1-4 neighbors
     2 = max # of special neighbors
  special bonds CPU = 6.333 seconds
  read_data CPU = 6.689 seconds

pair_coeff   1 1 0.0      1.0        # Ignore C-C
pair_coeff   1 2 0.0      1.0        # Ignore C-H
pair_coeff   1 3 0.004551 3.367      # LJ for C-O (0.4391 kJ/mol = 0.004551 eV)
pair_coeff   2 2 0.0      1.0        # SPC/E H-H
pair_coeff   2 3 0.0      1.0        # SPC/E H-O
pair_coeff   3 3 0.006735 3.166      # SPC/E O-O (0.1553 kcal/mol = 0.006735 eV)

set type 2 charge 0.4238            # SPC/E H
Setting atom values ...
  9360 settings made for charge
set type 3 charge -0.8476           # SPC/E O
Setting atom values ...
  4680 settings made for charge

variable t equal step

group graphene type 1
8640 atoms in group graphene
group H2O type 2 3
14040 atoms in group H2O

######### NVT production for 10 ns #############

thermo 10000
dump DUMP0 all atom 100 nvt_prod_0.lammpstrj
timestep 0.001
fix rigid_bonds H2O shake 0.0001 10 10000 b 1 a 1
Finding SHAKE clusters ...
       0 = # of size 2 clusters
       0 = # of size 3 clusters
       0 = # of size 4 clusters
    4680 = # of frozen angles
  find clusters CPU = 0.191 seconds
fix NVT1 H2O nvt temp 300 300 $(100.0*dt)
fix NVT1 H2O nvt temp 300 300 0.10000000000000000555
run 2000000
PPPM initialization ...
  using 12-bit tables for long-range coulomb (src/kspace.cpp:342)
  G vector (1/distance) = 0.30003007
  grid = 96 90 96
  stencil order = 5
  estimated absolute RMS force accuracy = 0.00016542148
  estimated relative force accuracy = 1.1487886e-05
  using double precision KISS FFT
  3d grid and FFT values/proc = 5472 1440
Generated 0 of 3 mixed pair_coeff terms from geometric mixing rule
Neighbor list info ...
  update: every = 1 steps, delay = 0 steps, check = yes
  max neighbors/atom: 2000, page size: 100000
  master list distance cutoff = 11
  ghost atom cutoff = 11
  binsize = 5.5, bins = 29 27 28
  1 neighbor lists, perpetual/occasional/extra = 1 0 0
  (1) pair lj/cut/coul/long, perpetual
      attributes: half, newton on
      pair build: half/bin/newton
      stencil: half/bin/3d
      bin: standard
SHAKE stats (type/ave/delta/count) on step 0
Bond:   1   1         1.32199e-06     9360
Angle:  1   109.47    9.67936e-05     4680
Per MPI rank memory allocation (min/avg/max) = 8.09 | 8.181 | 8.976 Mbytes
   Step          Temp          E_pair         E_mol          TotEng         Press     
         0   154.239       -2191.437       0             -1832.5917     -2.864906     
SHAKE stats (type/ave/delta/count) on step 10000
Bond:   1   1         1.31357e-06     9360
Angle:  1   109.47    0.000106157     4680
     10000   155.78686     -2183.7197      0             -1821.2733     -7.9787264    
SHAKE stats (type/ave/delta/count) on step 20000
Bond:   1   1         1.21432e-06     9360
Angle:  1   109.47    9.70071e-05     4680
     20000   155.14685     -2194.098       0             -1833.1405     -5.0624793    
SHAKE stats (type/ave/delta/count) on step 30000
Bond:   1   1         1.45974e-06     9360
Angle:  1   109.47    0.000111894     4680
     30000   155.45334     -2192.6853      0             -1831.0148     -7.7863104    
SHAKE stats (type/ave/delta/count) on step 40000
Bond:   1   1         1.23577e-06     9360
Angle:  1   109.47    0.00010083      4680
     40000   156.73487     -2180.2435      0             -1815.5915     -8.2726921    
SHAKE stats (type/ave/delta/count) on step 50000
Bond:   1   1         1.60813e-06     9360
Angle:  1   109.47    0.000118724     4680
     50000   155.26912     -2184.5407      0             -1823.2988     -11.112604    
SHAKE stats (type/ave/delta/count) on step 60000
Bond:   1   1         1.16993e-06     9360
Angle:  1   109.47    9.67035e-05     4680
     60000   155.54187     -2183.2585      0             -1821.3821     -3.8024041    
SHAKE stats (type/ave/delta/count) on step 70000
Bond:   1   1         1.31019e-06     9360
Angle:  1   109.47    9.66114e-05     4680
     70000   158.90494     -2189.0815      0             -1819.3807     -20.974781    
SHAKE stats (type/ave/delta/count) on step 80000
Bond:   1   1         1.30054e-06     9360
Angle:  1   109.47    0.000110226     4680
     80000   154.43301     -2192.0716      0             -1832.775      -8.3123836    
SHAKE stats (type/ave/delta/count) on step 90000
Bond:   1   1         1.62531e-06     9360
Angle:  1   109.47    0.000106719     4680
     90000   155.72084     -2192.2355      0             -1829.9426     -18.284787    
SHAKE stats (type/ave/delta/count) on step 100000
Bond:   1   1         1.58935e-06     9360
Angle:  1   109.47    9.28751e-05     4680
    100000   154.09625     -2181.4479      0             -1822.9348     -8.2481392    
SHAKE stats (type/ave/delta/count) on step 110000
Bond:   1   1         1.27023e-06     9360
Angle:  1   109.47    9.65841e-05     4680
    110000   154.6309      -2187.8726      0             -1828.1156     -15.470163    
SHAKE stats (type/ave/delta/count) on step 120000
Bond:   1   1         1.13476e-06     9360
Angle:  1   109.47    0.000101161     4680
    120000   156.96845     -2193.3636      0             -1828.1681     -1.5615009    
SHAKE stats (type/ave/delta/count) on step 130000
Bond:   1   1         1.30817e-06     9360
Angle:  1   109.47    9.99965e-05     4680
    130000   155.10376     -2189.2806      0             -1828.4235     -11.191221    
SHAKE stats (type/ave/delta/count) on step 140000
Bond:   1   1         1.46211e-06     9360
Angle:  1   109.47    0.000108788     4680
    140000   155.18789     -2192.7047      0             -1831.6518     -11.153606    
SHAKE stats (type/ave/delta/count) on step 150000
Bond:   1   1         1.21414e-06     9360
Angle:  1   109.47    0.000111437     4680
    150000   155.67917     -2190.317       0             -1828.1211     -14.676049    
SHAKE stats (type/ave/delta/count) on step 160000
Bond:   1   1         1.39654e-06     9360
Angle:  1   109.47    0.000108301     4680
    160000   155.02663     -2197.7733      0             -1837.0956     -7.7640393    
SHAKE stats (type/ave/delta/count) on step 170000
Bond:   1   1         1.22879e-06     9360
Angle:  1   109.47    9.88573e-05     4680
    170000   155.48652     -2184.4589      0             -1822.7113     -5.9906723    
SHAKE stats (type/ave/delta/count) on step 180000
Bond:   1   1         1.52727e-06     9360
Angle:  1   109.47    0.0001112       4680
    180000   156.83708     -2192.6492      0             -1827.7593     -4.1579662    
SHAKE stats (type/ave/delta/count) on step 190000
Bond:   1   1         1.29369e-06     9360
Angle:  1   109.47    0.000102428     4680
    190000   155.80731     -2185.2827      0             -1822.7887     -5.6522321    
SHAKE stats (type/ave/delta/count) on step 200000
Bond:   1   1         1.20732e-06     9360
Angle:  1   109.47    9.27136e-05     4680
    200000   157.02269     -2182.3927      0             -1817.0711     -20.472915    
SHAKE stats (type/ave/delta/count) on step 210000
Bond:   1   1         1.13068e-06     9360
Angle:  1   109.47    0.000100128     4680
    210000   154.04805     -2192.6472      0             -1834.2462     -8.2120107    
SHAKE stats (type/ave/delta/count) on step 220000
Bond:   1   1         1.23972e-06     9360
Angle:  1   109.47    0.000114205     4680
    220000   155.076       -2192.3632      0             -1831.5706     -13.350535    
SHAKE stats (type/ave/delta/count) on step 230000
Bond:   1   1         1.19162e-06     9360
Angle:  1   109.47    0.000105932     4680
    230000   157.28788     -2203.5178      0             -1837.5792      4.3953471    
SHAKE stats (type/ave/delta/count) on step 240000
Bond:   1   1         1.38588e-06     9360
Angle:  1   109.47    0.000100007     4680
    240000   154.15185     -2185.7685      0             -1827.126      -3.9697627    
SHAKE stats (type/ave/delta/count) on step 250000
Bond:   1   1         1.42431e-06     9360
Angle:  1   109.47    0.00011113      4680
    250000   157.1666      -2184.4468      0             -1818.7903      1.5214755    
SHAKE stats (type/ave/delta/count) on step 260000
Bond:   1   1         1.30122e-06     9360
Angle:  1   109.47    0.000104381     4680
    260000   158.04995     -2188.8091      0             -1821.0974     -13.3484      
SHAKE stats (type/ave/delta/count) on step 270000
Bond:   1   1         1.22265e-06     9360
Angle:  1   109.47    0.00010076      4680
    270000   155.38681     -2178.0478      0             -1816.5321     -19.67721     
SHAKE stats (type/ave/delta/count) on step 280000
Bond:   1   1         1.29198e-06     9360
Angle:  1   109.47    0.000105145     4680
    280000   153.56159     -2187.2728      0             -1830.0036     -12.151625    
SHAKE stats (type/ave/delta/count) on step 290000
Bond:   1   1         1.53724e-06     9360
Angle:  1   109.47    9.94394e-05     4680
    290000   156.28766     -2194.3117      0             -1830.7001     -13.484562    
SHAKE stats (type/ave/delta/count) on step 300000
Bond:   1   1         1.13356e-06     9360
Angle:  1   109.47    9.18093e-05     4680
    300000   154.944       -2191.8747      0             -1831.3892     -20.453467    
SHAKE stats (type/ave/delta/count) on step 310000
Bond:   1   1         1.29781e-06     9360
Angle:  1   109.47    9.49757e-05     4680
    310000   156.2031      -2189.3531      0             -1825.9383     -6.070982     
SHAKE stats (type/ave/delta/count) on step 320000
Bond:   1   1         1.283e-06       9360
Angle:  1   109.47    9.38193e-05     4680
    320000   155.31295     -2192.069       0             -1830.7251     -8.069459     
SHAKE stats (type/ave/delta/count) on step 330000
Bond:   1   1         1.37627e-06     9360
Angle:  1   109.47    9.39858e-05     4680
    330000   155.86791     -2193.9777      0             -1831.3427     -13.205174    
SHAKE stats (type/ave/delta/count) on step 340000
Bond:   1   1         1.37325e-06     9360
Angle:  1   109.47    9.8029e-05      4680
    340000   157.13226     -2197.9544      0             -1832.3778     -18.703512    
SHAKE stats (type/ave/delta/count) on step 350000
Bond:   1   1         1.74572e-06     9360
Angle:  1   109.47    0.000128196     4680
    350000   154.85483     -2193.4748      0             -1833.1968     -10.700657    
SHAKE stats (type/ave/delta/count) on step 360000
Bond:   1   1         1.51993e-06     9360
Angle:  1   109.47    9.74258e-05     4680
    360000   154.45207     -2186.329       0             -1826.988      -4.0175191    
SHAKE stats (type/ave/delta/count) on step 370000
Bond:   1   1         1.23432e-06     9360
Angle:  1   109.47    0.000101043     4680
    370000   156.38571     -2185.128       0             -1821.2883     -4.7967776    
SHAKE stats (type/ave/delta/count) on step 380000
Bond:   1   1         1.43606e-06     9360
Angle:  1   109.47    0.000101846     4680
    380000   156.06358     -2199.6574      0             -1836.5671      2.4092886    
SHAKE stats (type/ave/delta/count) on step 390000
Bond:   1   1         1.28441e-06     9360
Angle:  1   109.47    9.53624e-05     4680
    390000   156.49767     -2190.7551      0             -1826.6549     -10.012929    
SHAKE stats (type/ave/delta/count) on step 400000
Bond:   1   1         1.43914e-06     9360
Angle:  1   109.47    9.42492e-05     4680
    400000   157.33395     -2191.4581      0             -1825.4122     -9.1555923    
SHAKE stats (type/ave/delta/count) on step 410000
Bond:   1   1         1.60836e-06     9360
Angle:  1   109.47    0.000115589     4680
    410000   154.4584      -2187.6271      0             -1828.2714      3.508812     
SHAKE stats (type/ave/delta/count) on step 420000
Bond:   1   1         1.33296e-06     9360
Angle:  1   109.47    9.68164e-05     4680
    420000   155.64719     -2190.3093      0             -1828.1878     -16.571717    
SHAKE stats (type/ave/delta/count) on step 430000
Bond:   1   1         1.1886e-06      9360
Angle:  1   109.47    8.99865e-05     4680
    430000   156.79386     -2187.7841      0             -1822.9948     -4.1399112    
SHAKE stats (type/ave/delta/count) on step 440000
Bond:   1   1         1.60489e-06     9360
Angle:  1   109.47    0.000108397     4680
    440000   156.11153     -2184.0373      0             -1820.8355     -22.600555    
SHAKE stats (type/ave/delta/count) on step 450000
Bond:   1   1         1.37369e-06     9360
Angle:  1   109.47    0.000108456     4680
    450000   157.844       -2193.7777      0             -1826.5452     -14.428839    
SHAKE stats (type/ave/delta/count) on step 460000
Bond:   1   1         1.48559e-06     9360
Angle:  1   109.47    0.000114883     4680
    460000   157.54298     -2188.3611      0             -1821.829      -1.9974442    
SHAKE stats (type/ave/delta/count) on step 470000
Bond:   1   1         1.53772e-06     9360
Angle:  1   109.47    0.000115742     4680
    470000   156.99613     -2188.9157      0             -1823.6558     -4.9979327    
SHAKE stats (type/ave/delta/count) on step 480000
Bond:   1   1         1.2236e-06      9360
Angle:  1   109.47    9.61775e-05     4680
    480000   157.48904     -2189.5289      0             -1823.1222     -1.3446159    
SHAKE stats (type/ave/delta/count) on step 490000
Bond:   1   1         1.14493e-06     9360
Angle:  1   109.47    9.23633e-05     4680
    490000   153.83616     -2196.8383      0             -1838.9303     -5.3281304    
SHAKE stats (type/ave/delta/count) on step 500000
Bond:   1   1         1.28482e-06     9360
Angle:  1   109.47    0.000101308     4680
    500000   154.92615     -2192.1208      0             -1831.6769     -9.3302227    
SHAKE stats (type/ave/delta/count) on step 510000
Bond:   1   1         1.48978e-06     9360
Angle:  1   109.47    0.000108124     4680
    510000   156.28224     -2194.4158      0             -1830.8169     -6.7885486    
SHAKE stats (type/ave/delta/count) on step 520000
Bond:   1   1         1.31561e-06     9360
Angle:  1   109.47    9.67339e-05     4680
    520000   156.06769     -2195.6678      0             -1832.568       0.96013324   
SHAKE stats (type/ave/delta/count) on step 530000
Bond:   1   1         1.17906e-06     9360
Angle:  1   109.47    0.000114908     4680
    530000   155.10175     -2181.5772      0             -1820.7247     -11.959465    
SHAKE stats (type/ave/delta/count) on step 540000
Bond:   1   1         1.36817e-06     9360
Angle:  1   109.47    0.000104712     4680
    540000   157.38223     -2188.6845      0             -1822.5263     -15.435038    
SHAKE stats (type/ave/delta/count) on step 550000
Bond:   1   1         1.39515e-06     9360
Angle:  1   109.47    9.37489e-05     4680
    550000   158.15983     -2194.7391      0             -1826.7719     -5.2886608    
SHAKE stats (type/ave/delta/count) on step 560000
Bond:   1   1         1.27966e-06     9360
Angle:  1   109.47    0.000103224     4680
    560000   155.67495     -2199.0795      0             -1836.8934     -16.658896    
SHAKE stats (type/ave/delta/count) on step 570000
Bond:   1   1         1.28918e-06     9360
Angle:  1   109.47    9.31437e-05     4680
    570000   154.31892     -2191.7324      0             -1832.7012     -15.15005     
SHAKE stats (type/ave/delta/count) on step 580000
Bond:   1   1         1.26174e-06     9360
Angle:  1   109.47    9.48394e-05     4680
    580000   156.84683     -2189.1758      0             -1824.2633     -23.34123     
SHAKE stats (type/ave/delta/count) on step 590000
Bond:   1   1         1.30885e-06     9360
Angle:  1   109.47    0.000109236     4680
    590000   154.7108      -2185.6285      0             -1825.6856     -1.5408814    
SHAKE stats (type/ave/delta/count) on step 600000
Bond:   1   1         1.17558e-06     9360
Angle:  1   109.47    9.46448e-05     4680
    600000   156.09586     -2197.3671      0             -1834.2017     -10.211942    
SHAKE stats (type/ave/delta/count) on step 610000
Bond:   1   1         1.36242e-06     9360
Angle:  1   109.47    0.000102707     4680
    610000   157.0257      -2190.2431      0             -1824.9145     -1.5010003    
SHAKE stats (type/ave/delta/count) on step 620000
Bond:   1   1         1.17836e-06     9360
Angle:  1   109.47    9.68398e-05     4680
    620000   155.45354     -2192.4133      0             -1830.7423     -5.8090659    
SHAKE stats (type/ave/delta/count) on step 630000
Bond:   1   1         1.13619e-06     9360
Angle:  1   109.47    0.000106665     4680
    630000   153.60396     -2199.5554      0             -1842.1876     -14.84195     
SHAKE stats (type/ave/delta/count) on step 640000
Bond:   1   1         1.5992e-06      9360
Angle:  1   109.47    9.52755e-05     4680
    640000   157.01299     -2184.4542      0             -1819.1551      4.3568331    
SHAKE stats (type/ave/delta/count) on step 650000
Bond:   1   1         1.17198e-06     9360
Angle:  1   109.47    9.54407e-05     4680
    650000   158.20023     -2195.1536      0             -1827.0924     -6.7384538    
SHAKE stats (type/ave/delta/count) on step 660000
Bond:   1   1         1.25668e-06     9360
Angle:  1   109.47    9.58284e-05     4680
    660000   156.53785     -2207.1646      0             -1842.9709     -10.342383    
SHAKE stats (type/ave/delta/count) on step 670000
Bond:   1   1         1.29973e-06     9360
Angle:  1   109.47    0.000106763     4680
    670000   156.2506      -2184.8588      0             -1821.3334     -4.9018447    
SHAKE stats (type/ave/delta/count) on step 680000
Bond:   1   1         1.21871e-06     9360
Angle:  1   109.47    9.87295e-05     4680
    680000   156.37162     -2188.6265      0             -1824.8196      0.84297846   
SHAKE stats (type/ave/delta/count) on step 690000
Bond:   1   1         1.19906e-06     9360
Angle:  1   109.47    0.000101209     4680
    690000   155.02204     -2194.5979      0             -1833.9308     -23.056451    
SHAKE stats (type/ave/delta/count) on step 700000
Bond:   1   1         1.21983e-06     9360
Angle:  1   109.47    9.23166e-05     4680
    700000   157.89207     -2192.8837      0             -1825.5393     -8.3052621    
SHAKE stats (type/ave/delta/count) on step 710000
Bond:   1   1         1.27315e-06     9360
Angle:  1   109.47    0.00010375      4680
    710000   155.72412     -2195.1814      0             -1832.8809      1.0531009    
SHAKE stats (type/ave/delta/count) on step 720000
Bond:   1   1         1.20464e-06     9360
Angle:  1   109.47    9.35755e-05     4680
    720000   156.69274     -2192.2028      0             -1827.6488     -9.1310025    
SHAKE stats (type/ave/delta/count) on step 730000
Bond:   1   1         1.13594e-06     9360
Angle:  1   109.47    9.35953e-05     4680
    730000   156.99448     -2195.6555      0             -1830.3995     -25.235798    
SHAKE stats (type/ave/delta/count) on step 740000
Bond:   1   1         1.20529e-06     9360
Angle:  1   109.47    9.4394e-05      4680
    740000   155.48655     -2196.8727      0             -1835.1249     -12.705106    
SHAKE stats (type/ave/delta/count) on step 750000
Bond:   1   1         1.2717e-06      9360
Angle:  1   109.47    0.000117735     4680
    750000   156.49644     -2180.4175      0             -1816.3202     -7.9468002    
SHAKE stats (type/ave/delta/count) on step 760000
Bond:   1   1         1.10876e-06     9360
Angle:  1   109.47    9.5785e-05      4680
    760000   153.9715      -2189.2865      0             -1831.0636     -20.906108    
SHAKE stats (type/ave/delta/count) on step 770000
Bond:   1   1         1.19905e-06     9360
Angle:  1   109.47    9.95719e-05     4680
    770000   156.96254     -2192.9716      0             -1827.7899     -11.134858    
SHAKE stats (type/ave/delta/count) on step 780000
Bond:   1   1         1.25603e-06     9360
Angle:  1   109.47    9.45754e-05     4680
    780000   156.90119     -2189.9963      0             -1824.9573     -6.4799769    
SHAKE stats (type/ave/delta/count) on step 790000
Bond:   1   1         1.2881e-06      9360
Angle:  1   109.47    9.2652e-05      4680
    790000   156.29598     -2187.5389      0             -1823.908      -2.8635435    
SHAKE stats (type/ave/delta/count) on step 800000
Bond:   1   1         1.31958e-06     9360
Angle:  1   109.47    0.000101824     4680
    800000   153.28573     -2204.3659      0             -1847.7385     -3.3637851    
SHAKE stats (type/ave/delta/count) on step 810000
Bond:   1   1         1.51854e-06     9360
Angle:  1   109.47    0.000101262     4680
    810000   156.64484     -2188.0096      0             -1823.567      -15.748968    
SHAKE stats (type/ave/delta/count) on step 820000
Bond:   1   1         1.387e-06       9360
Angle:  1   109.47    0.000109269     4680
    820000   156.49827     -2193.0355      0             -1828.9339     -13.005909    
SHAKE stats (type/ave/delta/count) on step 830000
Bond:   1   1         1.19825e-06     9360
Angle:  1   109.47    0.000114512     4680
    830000   154.84704     -2191.5969      0             -1831.337      -9.9779484    
SHAKE stats (type/ave/delta/count) on step 840000
Bond:   1   1         1.25599e-06     9360
Angle:  1   109.47    9.50342e-05     4680
    840000   154.0703      -2196.5939      0             -1838.1411     -18.817727    
SHAKE stats (type/ave/delta/count) on step 850000
Bond:   1   1         1.21249e-06     9360
Angle:  1   109.47    9.17733e-05     4680
    850000   156.18989     -2201.0063      0             -1837.6222     -13.365073    
SHAKE stats (type/ave/delta/count) on step 860000
Bond:   1   1         1.34484e-06     9360
Angle:  1   109.47    0.000103294     4680
    860000   154.83921     -2199.0291      0             -1838.7874     -2.3972919    
SHAKE stats (type/ave/delta/count) on step 870000
Bond:   1   1         1.28759e-06     9360
Angle:  1   109.47    9.67487e-05     4680
    870000   155.67652     -2191.0325      0             -1828.8428     -0.50372185   
SHAKE stats (type/ave/delta/count) on step 880000
Bond:   1   1         1.33674e-06     9360
Angle:  1   109.47    0.00010535      4680
    880000   155.93031     -2190.3864      0             -1827.6062     -6.4871902    
SHAKE stats (type/ave/delta/count) on step 890000
Bond:   1   1         1.49366e-06     9360
Angle:  1   109.47    0.000110622     4680
    890000   158.2124      -2187.783       0             -1819.6934     -11.033082    
SHAKE stats (type/ave/delta/count) on step 900000
Bond:   1   1         1.25918e-06     9360
Angle:  1   109.47    9.07276e-05     4680
    900000   155.77231     -2197.6805      0             -1835.2679     -19.900007    
SHAKE stats (type/ave/delta/count) on step 910000
Bond:   1   1         1.21752e-06     9360
Angle:  1   109.47    0.000102519     4680
    910000   156.68769     -2192.0643      0             -1827.522      -18.455776    
SHAKE stats (type/ave/delta/count) on step 920000
Bond:   1   1         1.26006e-06     9360
Angle:  1   109.47    0.000104361     4680
    920000   156.64681     -2196.9098      0             -1832.4626     -15.075417    
SHAKE stats (type/ave/delta/count) on step 930000
Bond:   1   1         1.68871e-06     9360
Angle:  1   109.47    0.000107313     4680
    930000   155.39668     -2201.9432      0             -1840.4045     -20.130316    
SHAKE stats (type/ave/delta/count) on step 940000
Bond:   1   1         1.49924e-06     9360
Angle:  1   109.47    0.000120525     4680
    940000   159.15381     -2189.8491      0             -1819.5692     -3.8932784    
SHAKE stats (type/ave/delta/count) on step 950000
Bond:   1   1         1.20281e-06     9360
Angle:  1   109.47    9.34701e-05     4680
    950000   157.5905      -2189.3153      0             -1822.6726     -6.8554733    
SHAKE stats (type/ave/delta/count) on step 960000
Bond:   1   1         1.61575e-06     9360
Angle:  1   109.47    0.000114699     4680
    960000   156.2599      -2190.8942      0             -1827.3472     -9.2985858    
SHAKE stats (type/ave/delta/count) on step 970000
Bond:   1   1         1.29238e-06     9360
Angle:  1   109.47    9.46697e-05     4680
    970000   159.21947     -2185.4661      0             -1815.0335     -19.797443    
SHAKE stats (type/ave/delta/count) on step 980000
Bond:   1   1         1.34618e-06     9360
Angle:  1   109.47    0.000107516     4680
    980000   154.3261      -2192.3995      0             -1833.3516     -15.164639    
SHAKE stats (type/ave/delta/count) on step 990000
Bond:   1   1         1.54165e-06     9360
Angle:  1   109.47    0.000102699     4680
    990000   156.93914     -2189.9477      0             -1824.8204      1.7659428    
SHAKE stats (type/ave/delta/count) on step 1000000
Bond:   1   1         1.28121e-06     9360
Angle:  1   109.47    0.000123944     4680
   1000000   156.64007     -2192.18        0             -1827.7485     -14.27537     
SHAKE stats (type/ave/delta/count) on step 1010000
Bond:   1   1         1.44651e-06     9360
Angle:  1   109.47    9.59219e-05     4680
   1010000   156.49312     -2187.7742      0             -1823.6847     -7.436864     
SHAKE stats (type/ave/delta/count) on step 1020000
Bond:   1   1         1.34906e-06     9360
Angle:  1   109.47    0.000101275     4680
   1020000   157.81509     -2189.7947      0             -1822.6295     -5.8965275    
SHAKE stats (type/ave/delta/count) on step 1030000
Bond:   1   1         1.17876e-06     9360
Angle:  1   109.47    9.93874e-05     4680
   1030000   158.30363     -2194.0927      0             -1825.7909     -14.621911    
SHAKE stats (type/ave/delta/count) on step 1040000
Bond:   1   1         1.47292e-06     9360
Angle:  1   109.47    9.37886e-05     4680
   1040000   156.28391     -2189.7134      0             -1826.1106     -4.9958765    
SHAKE stats (type/ave/delta/count) on step 1050000
Bond:   1   1         1.24993e-06     9360
Angle:  1   109.47    0.00010933      4680
   1050000   155.2587      -2195.9928      0             -1834.7751     -1.8769115    
SHAKE stats (type/ave/delta/count) on step 1060000
Bond:   1   1         1.2187e-06      9360
Angle:  1   109.47    9.84782e-05     4680
   1060000   156.49675     -2187.8688      0             -1823.7708     -7.2691754    
SHAKE stats (type/ave/delta/count) on step 1070000
Bond:   1   1         1.30748e-06     9360
Angle:  1   109.47    9.69432e-05     4680
   1070000   154.55277     -2194.0455      0             -1834.4703     -6.3498207    
SHAKE stats (type/ave/delta/count) on step 1080000
Bond:   1   1         1.29033e-06     9360
Angle:  1   109.47    0.000103981     4680
   1080000   155.56224     -2181.5906      0             -1819.6667     -8.4829077    
SHAKE stats (type/ave/delta/count) on step 1090000
Bond:   1   1         1.29638e-06     9360
Angle:  1   109.47    9.15643e-05     4680
   1090000   155.27471     -2198.7108      0             -1837.4559     -14.80127     
SHAKE stats (type/ave/delta/count) on step 1100000
Bond:   1   1         1.40537e-06     9360
Angle:  1   109.47    9.86238e-05     4680
   1100000   157.32559     -2188.059       0             -1822.0326     -8.8784536    
SHAKE stats (type/ave/delta/count) on step 1110000
Bond:   1   1         1.54801e-06     9360
Angle:  1   109.47    0.000106057     4680
   1110000   155.64213     -2194.9813      0             -1832.8715      0.41995181   
SHAKE stats (type/ave/delta/count) on step 1120000
Bond:   1   1         1.72312e-06     9360
Angle:  1   109.47    0.000123791     4680
   1120000   157.36489     -2185.4837      0             -1819.3659     -9.4327921    
SHAKE stats (type/ave/delta/count) on step 1130000
Bond:   1   1         1.28053e-06     9360
Angle:  1   109.47    9.31741e-05     4680
   1130000   155.86833     -2189.3899      0             -1826.7539     -16.509358    
SHAKE stats (type/ave/delta/count) on step 1140000
Bond:   1   1         1.13307e-06     9360
Angle:  1   109.47    9.26893e-05     4680
   1140000   156.04223     -2191.3794      0             -1828.3389     -14.621788    
SHAKE stats (type/ave/delta/count) on step 1150000
Bond:   1   1         1.17029e-06     9360
Angle:  1   109.47    9.9067e-05      4680
   1150000   156.27928     -2184.3896      0             -1820.7976     -4.0479835    
SHAKE stats (type/ave/delta/count) on step 1160000
Bond:   1   1         1.12429e-06     9360
Angle:  1   109.47    0.00010635      4680
   1160000   158.18442     -2194.1634      0             -1826.1389     -9.9358845    
SHAKE stats (type/ave/delta/count) on step 1170000
Bond:   1   1         1.34066e-06     9360
Angle:  1   109.47    0.000105491     4680
   1170000   157.97547     -2181.4471      0             -1813.9087     -4.6271971    
SHAKE stats (type/ave/delta/count) on step 1180000
Bond:   1   1         1.3091e-06      9360
Angle:  1   109.47    9.46562e-05     4680
   1180000   155.81062     -2186.0662      0             -1823.5645     -18.102333    
SHAKE stats (type/ave/delta/count) on step 1190000
Bond:   1   1         1.51353e-06     9360
Angle:  1   109.47    0.000109602     4680
   1190000   154.91688     -2195.1509      0             -1834.7285      2.6465982    
SHAKE stats (type/ave/delta/count) on step 1200000
Bond:   1   1         1.34367e-06     9360
Angle:  1   109.47    9.33384e-05     4680
   1200000   157.80057     -2193.1809      0             -1826.0495     -10.682072    
SHAKE stats (type/ave/delta/count) on step 1210000
Bond:   1   1         1.18603e-06     9360
Angle:  1   109.47    9.81456e-05     4680
   1210000   155.58531     -2191.7141      0             -1829.7366     -12.456956    
SHAKE stats (type/ave/delta/count) on step 1220000
Bond:   1   1         1.55251e-06     9360
Angle:  1   109.47    0.000102971     4680
   1220000   155.71335     -2194.4283      0             -1832.1529     -11.418479    
SHAKE stats (type/ave/delta/count) on step 1230000
Bond:   1   1         1.27925e-06     9360
Angle:  1   109.47    0.000109199     4680
   1230000   156.63052     -2184.7147      0             -1820.3054     -4.9164307    
SHAKE stats (type/ave/delta/count) on step 1240000
Bond:   1   1         1.41868e-06     9360
Angle:  1   109.47    0.000102573     4680
   1240000   156.54541     -2191.3774      0             -1827.1661     -24.590746    
SHAKE stats (type/ave/delta/count) on step 1250000
Bond:   1   1         1.15935e-06     9360
Angle:  1   109.47    0.000102243     4680
   1250000   154.43516     -2184.4969      0             -1825.1952     -12.170447    
SHAKE stats (type/ave/delta/count) on step 1260000
Bond:   1   1         1.2548e-06      9360
Angle:  1   109.47    9.56255e-05     4680
   1260000   155.84938     -2191.8063      0             -1829.2143     -9.7919192    
SHAKE stats (type/ave/delta/count) on step 1270000
Bond:   1   1         1.44756e-06     9360
Angle:  1   109.47    0.000107089     4680
   1270000   154.90109     -2190.9154      0             -1830.5298     -8.661792     
SHAKE stats (type/ave/delta/count) on step 1280000
Bond:   1   1         1.19843e-06     9360
Angle:  1   109.47    0.000117815     4680
   1280000   157.23727     -2202.3628      0             -1836.5419     -13.484617    
SHAKE stats (type/ave/delta/count) on step 1290000
Bond:   1   1         1.1487e-06      9360
Angle:  1   109.47    9.11127e-05     4680
   1290000   152.58801     -2195.4352      0             -1840.4311     -14.893366    
SHAKE stats (type/ave/delta/count) on step 1300000
Bond:   1   1         1.47497e-06     9360
Angle:  1   109.47    9.0429e-05      4680
   1300000   157.03114     -2182.4578      0             -1817.1164     -20.999536    
SHAKE stats (type/ave/delta/count) on step 1310000
Bond:   1   1         1.2327e-06      9360
Angle:  1   109.47    0.000109586     4680
   1310000   154.97824     -2183.707       0             -1823.1419      3.2761484    
SHAKE stats (type/ave/delta/count) on step 1320000
Bond:   1   1         1.59915e-06     9360
Angle:  1   109.47    9.83703e-05     4680
   1320000   155.72706     -2191.0283      0             -1828.7209     -15.921959    
SHAKE stats (type/ave/delta/count) on step 1330000
Bond:   1   1         1.50044e-06     9360
Angle:  1   109.47    9.77794e-05     4680
   1330000   156.57901     -2192.9444      0             -1828.655      -2.7196761    
SHAKE stats (type/ave/delta/count) on step 1340000
Bond:   1   1         1.182e-06       9360
Angle:  1   109.47    9.46089e-05     4680
   1340000   158.05296     -2188.1658      0             -1820.4472     -26.643855    
SHAKE stats (type/ave/delta/count) on step 1350000
Bond:   1   1         1.25201e-06     9360
Angle:  1   109.47    9.63392e-05     4680
   1350000   157.72803     -2197.9901      0             -1831.0274     -22.370761    
SHAKE stats (type/ave/delta/count) on step 1360000
Bond:   1   1         1.4443e-06      9360
Angle:  1   109.47    0.000111197     4680
   1360000   155.57202     -2186.1971      0             -1824.2505     -10.304198    
SHAKE stats (type/ave/delta/count) on step 1370000
Bond:   1   1         1.22244e-06     9360
Angle:  1   109.47    9.8678e-05      4680
   1370000   157.734       -2189.3973      0             -1822.4207      5.5953846    
SHAKE stats (type/ave/delta/count) on step 1380000
Bond:   1   1         1.52515e-06     9360
Angle:  1   109.47    0.000100459     4680
   1380000   154.43276     -2191.3241      0             -1832.028      -11.698548    
SHAKE stats (type/ave/delta/count) on step 1390000
Bond:   1   1         1.51571e-06     9360
Angle:  1   109.47    0.000104853     4680
   1390000   156.93215     -2196.7954      0             -1831.6844     -10.292176    
SHAKE stats (type/ave/delta/count) on step 1400000
Bond:   1   1         1.13446e-06     9360
Angle:  1   109.47    0.00010734      4680
   1400000   154.52734     -2181.3861      0             -1821.87       -4.9215925    
SHAKE stats (type/ave/delta/count) on step 1410000
Bond:   1   1         1.20677e-06     9360
Angle:  1   109.47    9.72189e-05     4680
   1410000   155.75609     -2193.9429      0             -1831.5681     -15.338548    
SHAKE stats (type/ave/delta/count) on step 1420000
Bond:   1   1         1.41415e-06     9360
Angle:  1   109.47    9.94219e-05     4680
   1420000   155.2769      -2197.3073      0             -1836.0473     -10.22606     
SHAKE stats (type/ave/delta/count) on step 1430000
Bond:   1   1         1.71118e-06     9360
Angle:  1   109.47    0.000107853     4680
   1430000   155.70586     -2195.8411      0             -1833.5831     -16.951353    
SHAKE stats (type/ave/delta/count) on step 1440000
Bond:   1   1         1.23112e-06     9360
Angle:  1   109.47    0.000116633     4680
   1440000   156.42374     -2188.0712      0             -1824.1431     -8.0863606    
SHAKE stats (type/ave/delta/count) on step 1450000
Bond:   1   1         1.1714e-06      9360
Angle:  1   109.47    0.000119031     4680
   1450000   157.95777     -2182.8566      0             -1815.3594     -2.1003265    
SHAKE stats (type/ave/delta/count) on step 1460000
Bond:   1   1         1.52831e-06     9360
Angle:  1   109.47    0.000106987     4680
   1460000   156.31518     -2200.5044      0             -1836.8288     -10.736615    
SHAKE stats (type/ave/delta/count) on step 1470000
Bond:   1   1         1.32698e-06     9360
Angle:  1   109.47    9.28184e-05     4680
   1470000   155.29848     -2194.5375      0             -1833.2274     -15.095499    
SHAKE stats (type/ave/delta/count) on step 1480000
Bond:   1   1         1.24164e-06     9360
Angle:  1   109.47    0.000102239     4680
   1480000   156.81486     -2189.3181      0             -1824.48       -13.700571    
SHAKE stats (type/ave/delta/count) on step 1490000
Bond:   1   1         1.29745e-06     9360
Angle:  1   109.47    9.96786e-05     4680
   1490000   154.54303     -2190.5018      0             -1830.9492     -5.671294     
SHAKE stats (type/ave/delta/count) on step 1500000
Bond:   1   1         1.45147e-06     9360
Angle:  1   109.47    0.000105027     4680
   1500000   156.55672     -2199.4685      0             -1835.2309     -30.055086    
SHAKE stats (type/ave/delta/count) on step 1510000
Bond:   1   1         1.54257e-06     9360
Angle:  1   109.47    0.000112315     4680
   1510000   157.05127     -2193.0232      0             -1827.6351      1.0800073    
SHAKE stats (type/ave/delta/count) on step 1520000
Bond:   1   1         1.2786e-06      9360
Angle:  1   109.47    0.000103628     4680
   1520000   155.31377     -2186.7733      0             -1825.4275     -1.9834653    
SHAKE stats (type/ave/delta/count) on step 1530000
Bond:   1   1         1.2296e-06      9360
Angle:  1   109.47    0.000102019     4680
   1530000   154.60226     -2194.71        0             -1835.0195      4.8645258    
SHAKE stats (type/ave/delta/count) on step 1540000
Bond:   1   1         1.48888e-06     9360
Angle:  1   109.47    0.000117677     4680
   1540000   157.98705     -2190.4845      0             -1822.9192     -18.959333    
SHAKE stats (type/ave/delta/count) on step 1550000
Bond:   1   1         1.19907e-06     9360
Angle:  1   109.47    9.47009e-05     4680
   1550000   155.39826     -2192.2991      0             -1830.7567     -12.959597    
SHAKE stats (type/ave/delta/count) on step 1560000
Bond:   1   1         1.17803e-06     9360
Angle:  1   109.47    9.36611e-05     4680
   1560000   155.82431     -2194.0398      0             -1831.5062     -13.456505    
SHAKE stats (type/ave/delta/count) on step 1570000
Bond:   1   1         1.4036e-06      9360
Angle:  1   109.47    9.99099e-05     4680
   1570000   155.46834     -2194.4033      0             -1832.6979     -8.1313946    
SHAKE stats (type/ave/delta/count) on step 1580000
Bond:   1   1         1.33182e-06     9360
Angle:  1   109.47    9.36738e-05     4680
   1580000   155.83667     -2193.0737      0             -1830.5114     -15.900071    
SHAKE stats (type/ave/delta/count) on step 1590000
Bond:   1   1         1.56825e-06     9360
Angle:  1   109.47    0.000106915     4680
   1590000   154.95271     -2195.5028      0             -1834.997      -5.5478376    
SHAKE stats (type/ave/delta/count) on step 1600000
Bond:   1   1         1.37874e-06     9360
Angle:  1   109.47    0.000101792     4680
   1600000   155.20761     -2188.0536      0             -1826.9548     -15.525263    
SHAKE stats (type/ave/delta/count) on step 1610000
Bond:   1   1         1.5852e-06      9360
Angle:  1   109.47    0.000106821     4680
   1610000   155.45783     -2190.0087      0             -1828.3278     -7.9976597    
SHAKE stats (type/ave/delta/count) on step 1620000
Bond:   1   1         1.6012e-06      9360
Angle:  1   109.47    0.000114031     4680
   1620000   155.71782     -2193.2373      0             -1830.9515     -8.4413447    
SHAKE stats (type/ave/delta/count) on step 1630000
Bond:   1   1         1.21079e-06     9360
Angle:  1   109.47    9.65866e-05     4680
   1630000   155.02725     -2185.7536      0             -1825.0744     -11.853177    
SHAKE stats (type/ave/delta/count) on step 1640000
Bond:   1   1         1.28968e-06     9360
Angle:  1   109.47    9.1947e-05      4680
   1640000   155.27241     -2190.9106      0             -1829.661      -4.30365      
SHAKE stats (type/ave/delta/count) on step 1650000
Bond:   1   1         1.42066e-06     9360
Angle:  1   109.47    9.72721e-05     4680
   1650000   155.52891     -2192.3851      0             -1830.5388     -18.057551    
SHAKE stats (type/ave/delta/count) on step 1660000
Bond:   1   1         1.26277e-06     9360
Angle:  1   109.47    9.59299e-05     4680
   1660000   155.38309     -2184.9794      0             -1823.4724     -20.130213    
SHAKE stats (type/ave/delta/count) on step 1670000
Bond:   1   1         1.67467e-06     9360
Angle:  1   109.47    9.55361e-05     4680
   1670000   156.61409     -2197.0839      0             -1832.7128     -14.404585    
SHAKE stats (type/ave/delta/count) on step 1680000
Bond:   1   1         1.31134e-06     9360
Angle:  1   109.47    0.000111024     4680
   1680000   153.76621     -2184.474       0             -1826.7288     -13.953458    
SHAKE stats (type/ave/delta/count) on step 1690000
Bond:   1   1         1.2484e-06      9360
Angle:  1   109.47    9.8474e-05      4680
   1690000   156.7539      -2196.8546      0             -1832.1583     -15.491285    
SHAKE stats (type/ave/delta/count) on step 1700000
Bond:   1   1         1.35482e-06     9360
Angle:  1   109.47    9.93656e-05     4680
   1700000   155.52632     -2190.3946      0             -1828.5543      8.7254346    
SHAKE stats (type/ave/delta/count) on step 1710000
Bond:   1   1         1.53256e-06     9360
Angle:  1   109.47    0.000104626     4680
   1710000   156.3485      -2190.862       0             -1827.1089     -27.902819    
SHAKE stats (type/ave/delta/count) on step 1720000
Bond:   1   1         1.16123e-06     9360
Angle:  1   109.47    0.000101288     4680
   1720000   157.27243     -2191.2986      0             -1825.3959     -14.679791    
SHAKE stats (type/ave/delta/count) on step 1730000
Bond:   1   1         1.22542e-06     9360
Angle:  1   109.47    9.27136e-05     4680
   1730000   154.93435     -2187.0037      0             -1826.5407     -3.8233625    
SHAKE stats (type/ave/delta/count) on step 1740000
Bond:   1   1         1.24445e-06     9360
Angle:  1   109.47    9.7031e-05      4680
   1740000   156.13186     -2182.9162      0             -1819.6672     -21.936448    
SHAKE stats (type/ave/delta/count) on step 1750000
Bond:   1   1         1.39322e-06     9360
Angle:  1   109.47    0.000105617     4680
   1750000   156.12198     -2186.054       0             -1822.8279     -25.088725    
SHAKE stats (type/ave/delta/count) on step 1760000
Bond:   1   1         1.17742e-06     9360
Angle:  1   109.47    9.13658e-05     4680
   1760000   158.06538     -2189.9545      0             -1822.207      -15.42881     
SHAKE stats (type/ave/delta/count) on step 1770000
Bond:   1   1         1.25423e-06     9360
Angle:  1   109.47    0.00010939      4680
   1770000   157.72272     -2190.8415      0             -1823.8912     -1.7170791    
SHAKE stats (type/ave/delta/count) on step 1780000
Bond:   1   1         1.16198e-06     9360
Angle:  1   109.47    9.58367e-05     4680
   1780000   156.40945     -2194.038       0             -1830.1431     -18.376698    
SHAKE stats (type/ave/delta/count) on step 1790000
Bond:   1   1         1.2352e-06      9360
Angle:  1   109.47    9.56249e-05     4680
   1790000   157.16928     -2190.4742      0             -1824.8115     -27.298137    
SHAKE stats (type/ave/delta/count) on step 1800000
Bond:   1   1         1.38364e-06     9360
Angle:  1   109.47    0.000106013     4680
   1800000   155.5333      -2189.0113      0             -1827.1548     -13.019311    
SHAKE stats (type/ave/delta/count) on step 1810000
Bond:   1   1         1.31222e-06     9360
Angle:  1   109.47    0.000109911     4680
   1810000   157.41511     -2189.0639      0             -1822.8293     -13.376451    
SHAKE stats (type/ave/delta/count) on step 1820000
Bond:   1   1         1.29701e-06     9360
Angle:  1   109.47    0.000119901     4680
   1820000   155.63554     -2190.0374      0             -1827.943      -1.9193408    
SHAKE stats (type/ave/delta/count) on step 1830000
Bond:   1   1         1.49765e-06     9360
Angle:  1   109.47    0.000102347     4680
   1830000   155.36102     -2190.5995      0             -1829.1438     -1.9358914    
SHAKE stats (type/ave/delta/count) on step 1840000
Bond:   1   1         1.44243e-06     9360
Angle:  1   109.47    0.000120357     4680
   1840000   155.86255     -2186.5507      0             -1823.9281     -1.038221     
SHAKE stats (type/ave/delta/count) on step 1850000
Bond:   1   1         1.4298e-06      9360
Angle:  1   109.47    0.000107703     4680
   1850000   155.02986     -2191.7943      0             -1831.1091     -10.868256    
SHAKE stats (type/ave/delta/count) on step 1860000
Bond:   1   1         1.48124e-06     9360
Angle:  1   109.47    0.000112106     4680
   1860000   154.77441     -2191.1359      0             -1831.045      -13.958904    
SHAKE stats (type/ave/delta/count) on step 1870000
Bond:   1   1         1.23443e-06     9360
Angle:  1   109.47    9.7729e-05      4680
   1870000   158.25874     -2192.4591      0             -1824.2617     -19.29919     
SHAKE stats (type/ave/delta/count) on step 1880000
Bond:   1   1         1.35938e-06     9360
Angle:  1   109.47    9.46667e-05     4680
   1880000   155.75737     -2186.9584      0             -1824.5805     -8.1399968    
SHAKE stats (type/ave/delta/count) on step 1890000
Bond:   1   1         1.28568e-06     9360
Angle:  1   109.47    9.8042e-05      4680
   1890000   156.73104     -2193.3562      0             -1828.7131     -12.043198    
SHAKE stats (type/ave/delta/count) on step 1900000
Bond:   1   1         1.30553e-06     9360
Angle:  1   109.47    9.59278e-05     4680
   1900000   156.50726     -2185.8933      0             -1821.7709     -5.4834288    
SHAKE stats (type/ave/delta/count) on step 1910000
Bond:   1   1         1.29979e-06     9360
Angle:  1   109.47    0.000117631     4680
   1910000   156.48785     -2185.7671      0             -1821.6898     -9.7112688    
SHAKE stats (type/ave/delta/count) on step 1920000
Bond:   1   1         1.67938e-06     9360
Angle:  1   109.47    0.000110816     4680
   1920000   157.28169     -2189.4709      0             -1823.5466     -16.943408    
SHAKE stats (type/ave/delta/count) on step 1930000
Bond:   1   1         1.35679e-06     9360
Angle:  1   109.47    0.000105052     4680
   1930000   156.68162     -2181.5155      0             -1816.9874     -12.448464    
SHAKE stats (type/ave/delta/count) on step 1940000
Bond:   1   1         1.20057e-06     9360
Angle:  1   109.47    9.62754e-05     4680
   1940000   156.59971     -2194.8849      0             -1830.5473     -1.9332172    
SHAKE stats (type/ave/delta/count) on step 1950000
Bond:   1   1         1.33741e-06     9360
Angle:  1   109.47    0.000101438     4680
   1950000   155.1717      -2186.7694      0             -1825.7541     -13.049239    
SHAKE stats (type/ave/delta/count) on step 1960000
Bond:   1   1         1.32488e-06     9360
Angle:  1   109.47    0.00011649      4680
   1960000   156.15011     -2188.8102      0             -1825.5187     -4.592556     
SHAKE stats (type/ave/delta/count) on step 1970000
Bond:   1   1         1.74545e-06     9360
Angle:  1   109.47    0.000108906     4680
   1970000   157.41103     -2186.1941      0             -1819.969      -2.7044753    
SHAKE stats (type/ave/delta/count) on step 1980000
Bond:   1   1         1.20457e-06     9360
Angle:  1   109.47    9.91877e-05     4680
   1980000   155.23967     -2193.5132      0             -1832.3398     -17.889408    
SHAKE stats (type/ave/delta/count) on step 1990000
Bond:   1   1         1.57599e-06     9360
Angle:  1   109.47    0.000116228     4680
   1990000   156.07277     -2190.9735      0             -1827.8618     -17.838793    
SHAKE stats (type/ave/delta/count) on step 2000000
Bond:   1   1         1.33907e-06     9360
Angle:  1   109.47    0.000117144     4680
   2000000   156.3704      -2189.4144      0             -1825.6103     -10.999154    
Loop time of 13271.7 on 640 procs for 2000000 steps with 22680 atoms

Performance: 13.020 ns/day, 1.843 hours/ns, 150.697 timesteps/s, 3.418 Matom-step/s
100.0% CPU use with 640 MPI tasks x 1 OpenMP threads

MPI task timing breakdown:
Section |  min time  |  avg time  |  max time  |%varavg| %total
---------------------------------------------------------------
Pair    | 0.20413    | 205.07     | 4983.2     |4878.2 |  1.55
Bond    | 0.1545     | 0.31028    | 0.74792    |  16.2 |  0.00
Kspace  | 6848       | 11519      | 11815      | 645.4 | 86.79
Neigh   | 485.79     | 512.73     | 521.48     |  41.3 |  3.86
Comm    | 8.2826     | 127.61     | 602.28     |1482.4 |  0.96
Output  | 14.908     | 89.159     | 161.92     | 438.3 |  0.67
Modify  | 311        | 703.23     | 862.86     | 520.0 |  5.30
Other   |            | 114.6      |            |       |  0.86

Nlocal:        35.4375 ave         612 max           0 min
Histogram: 542 59 6 3 2 3 5 4 4 12
Nghost:        358.873 ave        4162 max           0 min
Histogram: 444 109 24 22 16 7 4 4 4 6
Neighs:        6316.77 ave      167695 max           0 min
Histogram: 601 9 3 3 5 3 1 5 3 7

Total # of neighbors = 4042730
Ave neighs/atom = 178.25088
Ave special neighs/atom = 1.2380952
Neighbor list builds = 106546
Dangerous builds = 0
undump DUMP0
write_restart nvt_prod.restart.*
System init for write_restart ...
PPPM initialization ...
  using 12-bit tables for long-range coulomb (src/kspace.cpp:342)
  G vector (1/distance) = 0.30003007
  grid = 96 90 96
  stencil order = 5
  estimated absolute RMS force accuracy = 0.00016542148
  estimated relative force accuracy = 1.1487886e-05
  using double precision KISS FFT
  3d grid and FFT values/proc = 5472 1440
Generated 0 of 3 mixed pair_coeff terms from geometric mixing rule

dump DUMP1 all atom 100 nvt_prod_1.lammpstrj
run 2000000
PPPM initialization ...
  using 12-bit tables for long-range coulomb (src/kspace.cpp:342)
  G vector (1/distance) = 0.30003007
  grid = 96 90 96
  stencil order = 5
  estimated absolute RMS force accuracy = 0.00016542148
  estimated relative force accuracy = 1.1487886e-05
  using double precision KISS FFT
  3d grid and FFT values/proc = 5472 1440
Generated 0 of 3 mixed pair_coeff terms from geometric mixing rule
SHAKE stats (type/ave/delta/count) on step 2000000
Bond:   1   1         1.33907e-06     9360
Angle:  1   109.47    0.000117144     4680
Per MPI rank memory allocation (min/avg/max) = 8.094 | 8.328 | 8.982 Mbytes
   Step          Temp          E_pair         E_mol          TotEng         Press     
   2000000   156.3704      -2189.4144      0             -1825.6103     -10.972854    
SHAKE stats (type/ave/delta/count) on step 2010000
Bond:   1   1         1.62026e-06     9360
Angle:  1   109.47    0.000109848     4680
   2010000   155.83709     -2184.3704      0             -1821.8071     -16.527963    
SHAKE stats (type/ave/delta/count) on step 2020000
Bond:   1   1         1.22826e-06     9360
Angle:  1   109.47    9.63282e-05     4680
   2020000   155.03582     -2194.8498      0             -1834.1507     -9.8342451    
SHAKE stats (type/ave/delta/count) on step 2030000
Bond:   1   1         1.30657e-06     9360
Angle:  1   109.47    9.76962e-05     4680
   2030000   155.81441     -2188.4945      0             -1825.984      -6.1922035    
SHAKE stats (type/ave/delta/count) on step 2040000
Bond:   1   1         1.33246e-06     9360
Angle:  1   109.47    9.18628e-05     4680
   2040000   156.59943     -2185.8451      0             -1821.5082     -9.4884955    
SHAKE stats (type/ave/delta/count) on step 2050000
Bond:   1   1         1.32361e-06     9360
Angle:  1   109.47    9.53002e-05     4680
   2050000   154.61825     -2185.1284      0             -1825.4008     -1.8545354    
SHAKE stats (type/ave/delta/count) on step 2060000
Bond:   1   1         1.31693e-06     9360
Angle:  1   109.47    0.000110465     4680
   2060000   157.99104     -2188.5019      0             -1820.9273      1.6224471    
SHAKE stats (type/ave/delta/count) on step 2070000
Bond:   1   1         1.31176e-06     9360
Angle:  1   109.47    0.000122331     4680
   2070000   157.74625     -2185.0202      0             -1818.0152     -1.1419454    
SHAKE stats (type/ave/delta/count) on step 2080000
Bond:   1   1         1.16281e-06     9360
Angle:  1   109.47    0.000121675     4680
   2080000   158.9453      -2190.0975      0             -1820.3028     -4.5059482    
SHAKE stats (type/ave/delta/count) on step 2090000
Bond:   1   1         1.18269e-06     9360
Angle:  1   109.47    0.000102137     4680
   2090000   153.57661     -2191.9704      0             -1834.6662     -20.453715    
SHAKE stats (type/ave/delta/count) on step 2100000
Bond:   1   1         1.30378e-06     9360
Angle:  1   109.47    9.82245e-05     4680
   2100000   156.6409      -2196.3082      0             -1831.8748     -3.2765181    
SHAKE stats (type/ave/delta/count) on step 2110000
Bond:   1   1         1.35369e-06     9360
Angle:  1   109.47    9.73598e-05     4680
   2110000   152.9876      -2194.1584      0             -1838.2246     -10.409662    
SHAKE stats (type/ave/delta/count) on step 2120000
Bond:   1   1         1.36105e-06     9360
Angle:  1   109.47    0.000102783     4680
   2120000   156.40647     -2185.1844      0             -1821.2964     -22.995683    
SHAKE stats (type/ave/delta/count) on step 2130000
Bond:   1   1         1.34403e-06     9360
Angle:  1   109.47    9.24943e-05     4680
   2130000   155.71755     -2193.1968      0             -1830.9116      5.1898159    
SHAKE stats (type/ave/delta/count) on step 2140000
Bond:   1   1         1.35579e-06     9360
Angle:  1   109.47    9.43076e-05     4680
   2140000   155.86924     -2192.4439      0             -1829.8058      1.8926667    
SHAKE stats (type/ave/delta/count) on step 2150000
Bond:   1   1         1.22465e-06     9360
Angle:  1   109.47    9.66792e-05     4680
   2150000   156.1312      -2187.796       0             -1824.5484     -18.255375    
SHAKE stats (type/ave/delta/count) on step 2160000
Bond:   1   1         1.53759e-06     9360
Angle:  1   109.47    9.70222e-05     4680
   2160000   153.3622      -2192.2864      0             -1835.481      -14.182309    
SHAKE stats (type/ave/delta/count) on step 2170000
Bond:   1   1         1.29202e-06     9360
Angle:  1   109.47    9.69809e-05     4680
   2170000   155.62195     -2186.0335      0             -1823.9708     -1.6399662    
SHAKE stats (type/ave/delta/count) on step 2180000
Bond:   1   1         1.29551e-06     9360
Angle:  1   109.47    0.000101728     4680
   2180000   156.31801     -2193.5177      0             -1829.8355     -6.9137469    
SHAKE stats (type/ave/delta/count) on step 2190000
Bond:   1   1         1.73095e-06     9360
Angle:  1   109.47    0.000104859     4680
   2190000   155.89548     -2205.5504      0             -1842.8513     -26.330862    
SHAKE stats (type/ave/delta/count) on step 2200000
Bond:   1   1         1.26767e-06     9360
Angle:  1   109.47    9.84109e-05     4680
   2200000   155.271       -2194.853       0             -1833.6068     -16.749236    
SHAKE stats (type/ave/delta/count) on step 2210000
Bond:   1   1         1.22874e-06     9360
Angle:  1   109.47    9.45956e-05     4680
   2210000   155.10937     -2198.4406      0             -1837.5704     -23.101917    
SHAKE stats (type/ave/delta/count) on step 2220000
Bond:   1   1         1.34133e-06     9360
Angle:  1   109.47    9.52333e-05     4680
   2220000   155.91502     -2183.404       0             -1820.6594     -10.829776    
SHAKE stats (type/ave/delta/count) on step 2230000
Bond:   1   1         1.6348e-06      9360
Angle:  1   109.47    0.000110342     4680
   2230000   154.60033     -2186.5153      0             -1826.8294     -8.2848929    
SHAKE stats (type/ave/delta/count) on step 2240000
Bond:   1   1         1.14317e-06     9360
Angle:  1   109.47    9.90563e-05     4680
   2240000   158.09473     -2187.4287      0             -1819.6129     -12.939672    
SHAKE stats (type/ave/delta/count) on step 2250000
Bond:   1   1         1.64666e-06     9360
Angle:  1   109.47    9.83628e-05     4680
   2250000   157.55009     -2195.1209      0             -1828.5722     -12.646522    
SHAKE stats (type/ave/delta/count) on step 2260000
Bond:   1   1         1.15686e-06     9360
Angle:  1   109.47    9.3968e-05      4680
   2260000   156.26074     -2196.3597      0             -1832.8107     -11.683415    
SHAKE stats (type/ave/delta/count) on step 2270000
Bond:   1   1         1.32576e-06     9360
Angle:  1   109.47    0.000100086     4680
   2270000   155.42555     -2190.4015      0             -1828.7957     -19.343774    
SHAKE stats (type/ave/delta/count) on step 2280000
Bond:   1   1         1.24219e-06     9360
Angle:  1   109.47    8.90286e-05     4680
   2280000   155.48558     -2186.7533      0             -1825.0078     -3.7134875    
SHAKE stats (type/ave/delta/count) on step 2290000
Bond:   1   1         1.72186e-06     9360
Angle:  1   109.47    0.000111723     4680
   2290000   157.39847     -2199.8825      0             -1833.6866      1.6948736    
SHAKE stats (type/ave/delta/count) on step 2300000
Bond:   1   1         1.31713e-06     9360
Angle:  1   109.47    9.82869e-05     4680
   2300000   157.68782     -2183.7602      0             -1816.8911     -5.0423505    
SHAKE stats (type/ave/delta/count) on step 2310000
Bond:   1   1         1.15413e-06     9360
Angle:  1   109.47    0.000110486     4680
   2310000   152.94648     -2181.8913      0             -1826.0531     -5.663308     
SHAKE stats (type/ave/delta/count) on step 2320000
Bond:   1   1         1.28338e-06     9360
Angle:  1   109.47    9.66139e-05     4680
   2320000   153.29941     -2191.073       0             -1834.4137      1.3178973    
SHAKE stats (type/ave/delta/count) on step 2330000
Bond:   1   1         1.30813e-06     9360
Angle:  1   109.47    9.38104e-05     4680
   2330000   155.87049     -2191.7108      0             -1829.0698     -9.6178985    
SHAKE stats (type/ave/delta/count) on step 2340000
Bond:   1   1         1.13066e-06     9360
Angle:  1   109.47    0.000107831     4680
   2340000   156.04312     -2205.4577      0             -1842.415      -6.7445786    
SHAKE stats (type/ave/delta/count) on step 2350000
Bond:   1   1         1.60349e-06     9360
Angle:  1   109.47    9.86675e-05     4680
   2350000   157.24004     -2189.102       0             -1823.2747     -15.127502    
SHAKE stats (type/ave/delta/count) on step 2360000
Bond:   1   1         1.17266e-06     9360
Angle:  1   109.47    9.92618e-05     4680
   2360000   156.05302     -2191.2314      0             -1828.1657      1.6547069    
SHAKE stats (type/ave/delta/count) on step 2370000
Bond:   1   1         1.22677e-06     9360
Angle:  1   109.47    9.97282e-05     4680
   2370000   154.73162     -2193.3707      0             -1833.3794     -5.9191454    
SHAKE stats (type/ave/delta/count) on step 2380000
Bond:   1   1         1.29058e-06     9360
Angle:  1   109.47    0.000107412     4680
   2380000   158.65099     -2183.2987      0             -1814.1887     -13.407343    
SHAKE stats (type/ave/delta/count) on step 2390000
Bond:   1   1         1.63226e-06     9360
Angle:  1   109.47    0.000110109     4680
   2390000   154.07556     -2187.8803      0             -1829.4153     -18.001806    
SHAKE stats (type/ave/delta/count) on step 2400000
Bond:   1   1         1.33547e-06     9360
Angle:  1   109.47    0.000103687     4680
   2400000   153.41396     -2186.4421      0             -1829.5163     -15.624074    
SHAKE stats (type/ave/delta/count) on step 2410000
Bond:   1   1         1.14257e-06     9360
Angle:  1   109.47    9.38036e-05     4680
   2410000   156.43809     -2187.2924      0             -1823.3309     -24.744669    
SHAKE stats (type/ave/delta/count) on step 2420000
Bond:   1   1         1.27295e-06     9360
Angle:  1   109.47    9.53947e-05     4680
   2420000   153.62691     -2200.2832      0             -1842.862      -8.4142002    
SHAKE stats (type/ave/delta/count) on step 2430000
Bond:   1   1         1.29872e-06     9360
Angle:  1   109.47    0.000106958     4680
   2430000   155.74506     -2201.3891      0             -1839.0399     -14.890717    
SHAKE stats (type/ave/delta/count) on step 2440000
Bond:   1   1         1.5165e-06      9360
Angle:  1   109.47    9.94838e-05     4680
   2440000   158.59701     -2189.8543      0             -1820.8699     -5.5392794    
SHAKE stats (type/ave/delta/count) on step 2450000
Bond:   1   1         1.20366e-06     9360
Angle:  1   109.47    9.78061e-05     4680
   2450000   156.97327     -2203.577       0             -1838.3704     -9.1325373    
SHAKE stats (type/ave/delta/count) on step 2460000
Bond:   1   1         1.20399e-06     9360
Angle:  1   109.47    9.37478e-05     4680
   2460000   154.94637     -2197.5276      0             -1837.0366     -9.7069457    
SHAKE stats (type/ave/delta/count) on step 2470000
Bond:   1   1         1.34065e-06     9360
Angle:  1   109.47    9.50328e-05     4680
   2470000   155.64004     -2191.5605      0             -1829.4556     -26.536917    
SHAKE stats (type/ave/delta/count) on step 2480000
Bond:   1   1         1.26148e-06     9360
Angle:  1   109.47    0.000108376     4680
   2480000   155.73827     -2196.2521      0             -1833.9187     -10.457257    
SHAKE stats (type/ave/delta/count) on step 2490000
Bond:   1   1         1.39058e-06     9360
Angle:  1   109.47    0.000112873     4680
   2490000   157.66913     -2190.443       0             -1823.6174     -22.770214    
SHAKE stats (type/ave/delta/count) on step 2500000
Bond:   1   1         1.50005e-06     9360
Angle:  1   109.47    0.000110201     4680
   2500000   155.53035     -2197.542       0             -1835.6923     -17.947368    
SHAKE stats (type/ave/delta/count) on step 2510000
Bond:   1   1         1.5297e-06      9360
Angle:  1   109.47    0.000103819     4680
   2510000   154.95093     -2187.5024      0             -1827.0008     -31.685867    
SHAKE stats (type/ave/delta/count) on step 2520000
Bond:   1   1         1.24714e-06     9360
Angle:  1   109.47    0.000114714     4680
   2520000   156.79272     -2208.8432      0             -1844.0565     -3.0687526    
SHAKE stats (type/ave/delta/count) on step 2530000
Bond:   1   1         1.18788e-06     9360
Angle:  1   109.47    0.000101758     4680
   2530000   155.38911     -2189.5344      0             -1828.0134     -16.960071    
SHAKE stats (type/ave/delta/count) on step 2540000
Bond:   1   1         1.37789e-06     9360
Angle:  1   109.47    0.000102402     4680
   2540000   156.06602     -2187.9118      0             -1824.8158     -22.905314    
SHAKE stats (type/ave/delta/count) on step 2550000
Bond:   1   1         1.3328e-06      9360
Angle:  1   109.47    0.000100281     4680
   2550000   153.95157     -2186.6429      0             -1828.4664     -11.73562     
SHAKE stats (type/ave/delta/count) on step 2560000
Bond:   1   1         1.33468e-06     9360
Angle:  1   109.47    9.23341e-05     4680
   2560000   155.5093      -2186.3346      0             -1824.5339     -11.921372    
SHAKE stats (type/ave/delta/count) on step 2570000
Bond:   1   1         1.2106e-06      9360
Angle:  1   109.47    9.5089e-05      4680
   2570000   156.8991      -2194.826       0             -1829.7919     -10.145896    
SHAKE stats (type/ave/delta/count) on step 2580000
Bond:   1   1         1.54411e-06     9360
Angle:  1   109.47    0.000119728     4680
   2580000   157.05408     -2190.9037      0             -1825.509      -15.068092    
SHAKE stats (type/ave/delta/count) on step 2590000
Bond:   1   1         1.20766e-06     9360
Angle:  1   109.47    0.000104038     4680
   2590000   156.24575     -2189.5942      0             -1826.0802     -1.3730142    
SHAKE stats (type/ave/delta/count) on step 2600000
Bond:   1   1         1.24054e-06     9360
Angle:  1   109.47    9.22136e-05     4680
   2600000   157.12915     -2179.5718      0             -1814.0025     -10.850214    
SHAKE stats (type/ave/delta/count) on step 2610000
Bond:   1   1         1.08379e-06     9360
Angle:  1   109.47    9.26824e-05     4680
   2610000   157.29003     -2192.7573      0             -1826.8137      2.4822481    
SHAKE stats (type/ave/delta/count) on step 2620000
Bond:   1   1         1.32699e-06     9360
Angle:  1   109.47    9.19708e-05     4680
   2620000   155.58395     -2196.5874      0             -1834.6131     -18.261106    
SHAKE stats (type/ave/delta/count) on step 2630000
Bond:   1   1         1.6601e-06      9360
Angle:  1   109.47    0.000105763     4680
   2630000   157.35018     -2181.9609      0             -1815.8773     -17.003461    
SHAKE stats (type/ave/delta/count) on step 2640000
Bond:   1   1         1.14644e-06     9360
Angle:  1   109.47    9.17451e-05     4680
   2640000   154.18802     -2189.4595      0             -1830.7328      0.048790968  
SHAKE stats (type/ave/delta/count) on step 2650000
Bond:   1   1         1.39475e-06     9360
Angle:  1   109.47    9.00514e-05     4680
   2650000   156.59535     -2191.9355      0             -1827.6081     -19.312872    
SHAKE stats (type/ave/delta/count) on step 2660000
Bond:   1   1         1.32834e-06     9360
Angle:  1   109.47    0.000115988     4680
   2660000   156.2859      -2193.4092      0             -1829.8017     -17.779478    
SHAKE stats (type/ave/delta/count) on step 2670000
Bond:   1   1         1.55641e-06     9360
Angle:  1   109.47    0.000100518     4680
   2670000   154.62839     -2204.4534      0             -1844.7022     -6.1081825    
SHAKE stats (type/ave/delta/count) on step 2680000
Bond:   1   1         1.27413e-06     9360
Angle:  1   109.47    9.34365e-05     4680
   2680000   153.89412     -2201.8736      0             -1843.8307     -9.5397573    
SHAKE stats (type/ave/delta/count) on step 2690000
Bond:   1   1         1.4685e-06      9360
Angle:  1   109.47    9.36814e-05     4680
   2690000   154.95499     -2197.8243      0             -1837.3133     -3.669029     
SHAKE stats (type/ave/delta/count) on step 2700000
Bond:   1   1         1.17262e-06     9360
Angle:  1   109.47    9.64117e-05     4680
   2700000   157.96822     -2185.7446      0             -1818.2231     -19.665847    
SHAKE stats (type/ave/delta/count) on step 2710000
Bond:   1   1         1.3753e-06      9360
Angle:  1   109.47    0.000114557     4680
   2710000   154.49179     -2194.3645      0             -1834.9311     -26.277618    
SHAKE stats (type/ave/delta/count) on step 2720000
Bond:   1   1         1.59812e-06     9360
Angle:  1   109.47    0.000119015     4680
   2720000   157.77815     -2189.3687      0             -1822.2894      9.1074276    
SHAKE stats (type/ave/delta/count) on step 2730000
Bond:   1   1         1.52255e-06     9360
Angle:  1   109.47    9.97215e-05     4680
   2730000   154.46108     -2189.9613      0             -1830.5994     -7.2810558    
SHAKE stats (type/ave/delta/count) on step 2740000
Bond:   1   1         1.24906e-06     9360
Angle:  1   109.47    0.000124833     4680
   2740000   157.05253     -2200.8035      0             -1835.4124     -5.6616949    
SHAKE stats (type/ave/delta/count) on step 2750000
Bond:   1   1         1.24863e-06     9360
Angle:  1   109.47    9.62432e-05     4680
   2750000   156.06137     -2189.9169      0             -1826.8318     -6.1941806    
SHAKE stats (type/ave/delta/count) on step 2760000
Bond:   1   1         1.25415e-06     9360
Angle:  1   109.47    0.000103243     4680
   2760000   155.95807     -2189.6087      0             -1826.7639     -3.433491     
SHAKE stats (type/ave/delta/count) on step 2770000
Bond:   1   1         1.46387e-06     9360
Angle:  1   109.47    0.000102821     4680
   2770000   157.89322     -2197.8247      0             -1830.4777     -5.2747444    
SHAKE stats (type/ave/delta/count) on step 2780000
Bond:   1   1         1.64747e-06     9360
Angle:  1   109.47    0.000112547     4680
   2780000   156.64474     -2189.7362      0             -1825.2939     -12.344449    
SHAKE stats (type/ave/delta/count) on step 2790000
Bond:   1   1         1.42995e-06     9360
Angle:  1   109.47    9.10987e-05     4680
   2790000   156.8325      -2187.6002      0             -1822.721      -1.3565918    
SHAKE stats (type/ave/delta/count) on step 2800000
Bond:   1   1         1.40799e-06     9360
Angle:  1   109.47    0.000101864     4680
   2800000   156.86273     -2203.5022      0             -1838.5527     -20.928534    
SHAKE stats (type/ave/delta/count) on step 2810000
Bond:   1   1         1.61385e-06     9360
Angle:  1   109.47    9.85356e-05     4680
   2810000   157.61321     -2191.3784      0             -1824.6829     -2.017531     
SHAKE stats (type/ave/delta/count) on step 2820000
Bond:   1   1         1.29739e-06     9360
Angle:  1   109.47    9.8549e-05      4680
   2820000   153.67523     -2193.3421      0             -1835.8085     -13.514058    
SHAKE stats (type/ave/delta/count) on step 2830000
Bond:   1   1         1.74205e-06     9360
Angle:  1   109.47    0.000129974     4680
   2830000   159.09464     -2193.3365      0             -1823.1944     -5.5904211    
SHAKE stats (type/ave/delta/count) on step 2840000
Bond:   1   1         1.40947e-06     9360
Angle:  1   109.47    0.000110842     4680
   2840000   156.13549     -2189.9483      0             -1826.6908     -10.523483    
SHAKE stats (type/ave/delta/count) on step 2850000
Bond:   1   1         1.33935e-06     9360
Angle:  1   109.47    0.000106289     4680
   2850000   156.89648     -2197.0178      0             -1831.9898     -15.759996    
SHAKE stats (type/ave/delta/count) on step 2860000
Bond:   1   1         1.29496e-06     9360
Angle:  1   109.47    0.000120681     4680
   2860000   156.78412     -2187.6872      0             -1822.9206     -16.320054    
SHAKE stats (type/ave/delta/count) on step 2870000
Bond:   1   1         1.28223e-06     9360
Angle:  1   109.47    9.27071e-05     4680
   2870000   158.75877     -2179.1993      0             -1809.8386     -9.2038901    
SHAKE stats (type/ave/delta/count) on step 2880000
Bond:   1   1         1.60965e-06     9360
Angle:  1   109.47    0.000111061     4680
   2880000   155.10869     -2192.9876      0             -1832.1189     -3.3505823    
SHAKE stats (type/ave/delta/count) on step 2890000
Bond:   1   1         1.47664e-06     9360
Angle:  1   109.47    0.000108137     4680
   2890000   156.47493     -2191.2752      0             -1827.2279      1.6252983    
SHAKE stats (type/ave/delta/count) on step 2900000
Bond:   1   1         1.29367e-06     9360
Angle:  1   109.47    9.98046e-05     4680
   2900000   156.03905     -2191.6075      0             -1828.5743      0.63384776   
SHAKE stats (type/ave/delta/count) on step 2910000
Bond:   1   1         1.68313e-06     9360
Angle:  1   109.47    0.000126935     4680
   2910000   155.77256     -2195.7035      0             -1833.2904     -42.1978      
SHAKE stats (type/ave/delta/count) on step 2920000
Bond:   1   1         1.23839e-06     9360
Angle:  1   109.47    8.78026e-05     4680
   2920000   157.4196      -2190.5295      0             -1824.2844     -8.271894     
SHAKE stats (type/ave/delta/count) on step 2930000
Bond:   1   1         1.438e-06       9360
Angle:  1   109.47    0.000100216     4680
   2930000   156.6904      -2194.9079      0             -1830.3594     -7.1611395    
SHAKE stats (type/ave/delta/count) on step 2940000
Bond:   1   1         1.13488e-06     9360
Angle:  1   109.47    9.79161e-05     4680
   2940000   154.79961     -2189.3699      0             -1829.2204      4.5270952    
SHAKE stats (type/ave/delta/count) on step 2950000
Bond:   1   1         1.18178e-06     9360
Angle:  1   109.47    9.73977e-05     4680
   2950000   155.57524     -2190.6561      0             -1828.702      -20.630917    
SHAKE stats (type/ave/delta/count) on step 2960000
Bond:   1   1         1.47663e-06     9360
Angle:  1   109.47    0.000100046     4680
   2960000   154.77075     -2192.4102      0             -1832.3278     -10.167084    
SHAKE stats (type/ave/delta/count) on step 2970000
Bond:   1   1         1.42428e-06     9360
Angle:  1   109.47    0.000106005     4680
   2970000   158.59217     -2185.0515      0             -1816.0783     -14.145587    
SHAKE stats (type/ave/delta/count) on step 2980000
Bond:   1   1         1.21114e-06     9360
Angle:  1   109.47    0.000107795     4680
   2980000   154.68005     -2185.2386      0             -1825.3672     -23.317917    
SHAKE stats (type/ave/delta/count) on step 2990000
Bond:   1   1         1.37601e-06     9360
Angle:  1   109.47    0.000106089     4680
   2990000   153.96088     -2190.0502      0             -1831.852      -19.907728    
SHAKE stats (type/ave/delta/count) on step 3000000
Bond:   1   1         1.47117e-06     9360
Angle:  1   109.47    0.000119678     4680
   3000000   154.64693     -2194.258       0             -1834.4636      0.61393106   
SHAKE stats (type/ave/delta/count) on step 3010000
Bond:   1   1         1.4868e-06      9360
Angle:  1   109.47    0.000102397     4680
   3010000   155.5723      -2184.6443      0             -1822.697      -12.945522    
SHAKE stats (type/ave/delta/count) on step 3020000
Bond:   1   1         1.1514e-06      9360
Angle:  1   109.47    9.21529e-05     4680
   3020000   156.83039     -2195.0737      0             -1830.1995     -5.9646505    
SHAKE stats (type/ave/delta/count) on step 3030000
Bond:   1   1         1.23874e-06     9360
Angle:  1   109.47    9.41454e-05     4680
   3030000   157.4929      -2193.9478      0             -1827.5322     -4.0500961    
SHAKE stats (type/ave/delta/count) on step 3040000
Bond:   1   1         1.31111e-06     9360
Angle:  1   109.47    9.94682e-05     4680
   3040000   155.75745     -2198.8051      0             -1836.427       4.1818294    
SHAKE stats (type/ave/delta/count) on step 3050000
Bond:   1   1         1.27309e-06     9360
Angle:  1   109.47    9.79217e-05     4680
   3050000   157.19981     -2189.5423      0             -1823.8086     -13.814535    
SHAKE stats (type/ave/delta/count) on step 3060000
Bond:   1   1         1.18756e-06     9360
Angle:  1   109.47    0.000107545     4680
   3060000   156.31761     -2193.6607      0             -1829.9795     -3.241401     
SHAKE stats (type/ave/delta/count) on step 3070000
Bond:   1   1         1.23068e-06     9360
Angle:  1   109.47    9.06112e-05     4680
   3070000   157.50818     -2197.7287      0             -1831.2775      5.5318447    
SHAKE stats (type/ave/delta/count) on step 3080000
Bond:   1   1         1.46329e-06     9360
Angle:  1   109.47    9.11129e-05     4680
   3080000   155.04791     -2190.7572      0             -1830.03       -12.716442    
SHAKE stats (type/ave/delta/count) on step 3090000
Bond:   1   1         1.34481e-06     9360
Angle:  1   109.47    9.89559e-05     4680
   3090000   154.57957     -2183.9758      0             -1824.3382     -8.1855892    
SHAKE stats (type/ave/delta/count) on step 3100000
Bond:   1   1         1.28138e-06     9360
Angle:  1   109.47    0.00010399      4680
   3100000   153.75685     -2186.0393      0             -1828.3158      2.8630743    
SHAKE stats (type/ave/delta/count) on step 3110000
Bond:   1   1         1.20931e-06     9360
Angle:  1   109.47    9.21763e-05     4680
   3110000   156.90769     -2193.6131      0             -1828.559      -7.7748407    
SHAKE stats (type/ave/delta/count) on step 3120000
Bond:   1   1         1.17799e-06     9360
Angle:  1   109.47    9.3597e-05      4680
   3120000   158.45656     -2194.209       0             -1825.5514      1.603533     
SHAKE stats (type/ave/delta/count) on step 3130000
Bond:   1   1         1.12672e-06     9360
Angle:  1   109.47    9.15849e-05     4680
   3130000   157.34899     -2190.2279      0             -1824.1471     -15.261174    
SHAKE stats (type/ave/delta/count) on step 3140000
Bond:   1   1         1.28049e-06     9360
Angle:  1   109.47    0.000104246     4680
   3140000   156.50619     -2182.3281      0             -1818.2081     -13.037501    
SHAKE stats (type/ave/delta/count) on step 3150000
Bond:   1   1         1.36384e-06     9360
Angle:  1   109.47    0.000102345     4680
   3150000   156.49252     -2190.43        0             -1826.3418     -10.414015    
SHAKE stats (type/ave/delta/count) on step 3160000
Bond:   1   1         1.28964e-06     9360
Angle:  1   109.47    0.00010827      4680
   3160000   158.17343     -2191.9189      0             -1823.92       -12.693725    
SHAKE stats (type/ave/delta/count) on step 3170000
Bond:   1   1         1.2431e-06      9360
Angle:  1   109.47    0.000105188     4680
   3170000   155.57401     -2187.6866      0             -1825.7354     -18.928653    
SHAKE stats (type/ave/delta/count) on step 3180000
Bond:   1   1         1.1406e-06      9360
Angle:  1   109.47    0.000100456     4680
   3180000   155.5201      -2191.4113      0             -1829.5854     -22.336187    
SHAKE stats (type/ave/delta/count) on step 3190000
Bond:   1   1         1.36101e-06     9360
Angle:  1   109.47    0.000109541     4680
   3190000   156.67206     -2192.7081      0             -1828.2022     -14.742834    
SHAKE stats (type/ave/delta/count) on step 3200000
Bond:   1   1         1.44521e-06     9360
Angle:  1   109.47    0.0001059       4680
   3200000   154.44032     -2188.1025      0             -1828.7888     -12.271109    
SHAKE stats (type/ave/delta/count) on step 3210000
Bond:   1   1         1.79336e-06     9360
Angle:  1   109.47    0.000131525     4680
   3210000   153.02749     -2191.4225      0             -1835.3959     -8.761854     
SHAKE stats (type/ave/delta/count) on step 3220000
Bond:   1   1         1.41346e-06     9360
Angle:  1   109.47    0.000101275     4680
   3220000   156.05669     -2193.679       0             -1830.6048     -8.5829621    
SHAKE stats (type/ave/delta/count) on step 3230000
Bond:   1   1         1.48349e-06     9360
Angle:  1   109.47    9.85901e-05     4680
   3230000   154.63809     -2190.3258      0             -1830.5521     -14.904399    
SHAKE stats (type/ave/delta/count) on step 3240000
Bond:   1   1         1.63175e-06     9360
Angle:  1   109.47    9.20685e-05     4680
   3240000   156.46527     -2194.1771      0             -1830.1524     -15.019276    
SHAKE stats (type/ave/delta/count) on step 3250000
Bond:   1   1         1.3252e-06      9360
Angle:  1   109.47    0.000101574     4680
   3250000   156.14357     -2189.1066      0             -1825.8303     -5.4934828    
SHAKE stats (type/ave/delta/count) on step 3260000
Bond:   1   1         1.38437e-06     9360
Angle:  1   109.47    0.000125117     4680
   3260000   157.44612     -2186.1049      0             -1819.7981     -5.1265811    
SHAKE stats (type/ave/delta/count) on step 3270000
Bond:   1   1         1.36277e-06     9360
Angle:  1   109.47    0.000101311     4680
   3270000   155.17537     -2191.2237      0             -1830.1999     -8.2687112    
SHAKE stats (type/ave/delta/count) on step 3280000
Bond:   1   1         1.36679e-06     9360
Angle:  1   109.47    9.86368e-05     4680
   3280000   158.16913     -2196.1026      0             -1828.1137     -17.897481    
SHAKE stats (type/ave/delta/count) on step 3290000
Bond:   1   1         1.38567e-06     9360
Angle:  1   109.47    9.65131e-05     4680
   3290000   154.54402     -2195.4825      0             -1835.9276     -2.3738837    
SHAKE stats (type/ave/delta/count) on step 3300000
Bond:   1   1         1.13911e-06     9360
Angle:  1   109.47    9.8186e-05      4680
[...]
Bond:   1   1         1.28145e-06     9360
Angle:  1   109.47    9.45021e-05     4680
   9220000   156.65864     -2190.7169      0             -1826.2422      6.8312474    
SHAKE stats (type/ave/delta/count) on step 9230000
Bond:   1   1         1.441e-06       9360
Angle:  1   109.47    0.000108341     4680
   9230000   156.54162     -2186.812       0             -1822.6096     -12.64268     
SHAKE stats (type/ave/delta/count) on step 9240000
Bond:   1   1         1.59727e-06     9360
Angle:  1   109.47    0.000117852     4680
   9240000   153.97539     -2191.0642      0             -1832.8322     -12.530979    
SHAKE stats (type/ave/delta/count) on step 9250000
Bond:   1   1         1.25736e-06     9360
Angle:  1   109.47    0.000101513     4680
   9250000   157.02873     -2190.427       0             -1825.0913     -9.7517359    
SHAKE stats (type/ave/delta/count) on step 9260000
Bond:   1   1         1.31287e-06     9360
Angle:  1   109.47    0.000111356     4680
   9260000   155.65067     -2190.733       0             -1828.6035     -25.19123     
SHAKE stats (type/ave/delta/count) on step 9270000
Bond:   1   1         1.30606e-06     9360
Angle:  1   109.47    9.85255e-05     4680
   9270000   156.39754     -2189.9089      0             -1826.0416     -4.2490244    
SHAKE stats (type/ave/delta/count) on step 9280000
Bond:   1   1         1.27834e-06     9360
Angle:  1   109.47    0.000101023     4680
   9280000   159.29984     -2195.6153      0             -1824.9957     -5.0597801    
SHAKE stats (type/ave/delta/count) on step 9290000
Bond:   1   1         1.36999e-06     9360
Angle:  1   109.47    9.35443e-05     4680
   9290000   156.48993     -2201.2761      0             -1837.194      -7.9843272    
SHAKE stats (type/ave/delta/count) on step 9300000
Bond:   1   1         1.18254e-06     9360
Angle:  1   109.47    9.48433e-05     4680
   9300000   155.45248     -2183.6153      0             -1821.9468     -13.049123    
SHAKE stats (type/ave/delta/count) on step 9310000
Bond:   1   1         1.38223e-06     9360
Angle:  1   109.47    9.64264e-05     4680
   9310000   157.07943     -2191.1021      0             -1825.6484     -11.746788    
SHAKE stats (type/ave/delta/count) on step 9320000
Bond:   1   1         1.53189e-06     9360
Angle:  1   109.47    0.000108825     4680
   9320000   157.42524     -2185.7242      0             -1819.466      -16.316676    
SHAKE stats (type/ave/delta/count) on step 9330000
Bond:   1   1         1.42648e-06     9360
Angle:  1   109.47    0.000121374     4680
   9330000   156.15284     -2183.9101      0             -1820.6122     -4.6215824    
SHAKE stats (type/ave/delta/count) on step 9340000
Bond:   1   1         1.24158e-06     9360
Angle:  1   109.47    9.71707e-05     4680
   9340000   156.13324     -2190.4458      0             -1827.1935     -14.15058     
SHAKE stats (type/ave/delta/count) on step 9350000
Bond:   1   1         1.15122e-06     9360
Angle:  1   109.47    9.83658e-05     4680
   9350000   156.55067     -2187.6157      0             -1823.3922     -13.671117    
SHAKE stats (type/ave/delta/count) on step 9360000
Bond:   1   1         1.35187e-06     9360
Angle:  1   109.47    0.000100969     4680
   9360000   156.37453     -2190.7462      0             -1826.9325     -6.2903962    
SHAKE stats (type/ave/delta/count) on step 9370000
Bond:   1   1         1.38779e-06     9360
Angle:  1   109.47    0.000101991     4680
   9370000   156.10226     -2187.065       0             -1823.8848     -3.7534505    
SHAKE stats (type/ave/delta/count) on step 9380000
Bond:   1   1         1.58149e-06     9360
Angle:  1   109.47    0.00011989      4680
   9380000   158.16663     -2191.9272      0             -1823.9441     -20.997882    
SHAKE stats (type/ave/delta/count) on step 9390000
Bond:   1   1         1.28054e-06     9360
Angle:  1   109.47    0.000100015     4680
   9390000   156.18403     -2175.0167      0             -1811.6462     -1.5537885    
SHAKE stats (type/ave/delta/count) on step 9400000
Bond:   1   1         1.45656e-06     9360
Angle:  1   109.47    0.000104823     4680
   9400000   159.36168     -2186.0048      0             -1815.2413     -18.655284    
SHAKE stats (type/ave/delta/count) on step 9410000
Bond:   1   1         1.37361e-06     9360
Angle:  1   109.47    0.000102437     4680
   9410000   156.25615     -2193.3389      0             -1829.8006     -1.7347836    
SHAKE stats (type/ave/delta/count) on step 9420000
Bond:   1   1         1.6737e-06      9360
Angle:  1   109.47    0.000106562     4680
   9420000   157.04319     -2191.4141      0             -1826.0447     -22.427544    
SHAKE stats (type/ave/delta/count) on step 9430000
Bond:   1   1         1.28952e-06     9360
Angle:  1   109.47    0.000101016     4680
   9430000   154.92853     -2191.4819      0             -1831.0324     -10.393676    
SHAKE stats (type/ave/delta/count) on step 9440000
Bond:   1   1         1.16819e-06     9360
Angle:  1   109.47    9.67682e-05     4680
   9440000   156.41796     -2196.4254      0             -1832.5107     -4.6544132    
SHAKE stats (type/ave/delta/count) on step 9450000
Bond:   1   1         1.22768e-06     9360
Angle:  1   109.47    0.000102141     4680
   9450000   154.51096     -2192.0823      0             -1832.6043     -12.616999    
SHAKE stats (type/ave/delta/count) on step 9460000
Bond:   1   1         1.38534e-06     9360
Angle:  1   109.47    0.000113551     4680
   9460000   155.98514     -2187.9116      0             -1825.0039     -5.0462726    
SHAKE stats (type/ave/delta/count) on step 9470000
Bond:   1   1         1.33098e-06     9360
Angle:  1   109.47    0.00012177      4680
   9470000   154.84737     -2194.7974      0             -1834.5368     -27.402702    
SHAKE stats (type/ave/delta/count) on step 9480000
Bond:   1   1         1.59218e-06     9360
Angle:  1   109.47    0.000104066     4680
   9480000   156.32933     -2199.7695      0             -1836.061       2.5440467    
SHAKE stats (type/ave/delta/count) on step 9490000
Bond:   1   1         1.32904e-06     9360
Angle:  1   109.47    0.000140644     4680
   9490000   152.82789     -2185.8693      0             -1830.307      -14.444642    
SHAKE stats (type/ave/delta/count) on step 9500000
Bond:   1   1         1.82267e-06     9360
Angle:  1   109.47    0.000111856     4680
   9500000   154.70164     -2191.5591      0             -1831.6375     -6.6899443    
SHAKE stats (type/ave/delta/count) on step 9510000
Bond:   1   1         1.34288e-06     9360
Angle:  1   109.47    0.000116817     4680
   9510000   156.76756     -2184.8288      0             -1820.1007     -17.123689    
SHAKE stats (type/ave/delta/count) on step 9520000
Bond:   1   1         1.32856e-06     9360
Angle:  1   109.47    0.000108084     4680
   9520000   152.5553      -2197.9075      0             -1842.9794     -5.5600633    
SHAKE stats (type/ave/delta/count) on step 9530000
Bond:   1   1         1.25099e-06     9360
Angle:  1   109.47    9.42392e-05     4680
   9530000   160.12717     -2192.6796      0             -1820.1352      1.965493     
SHAKE stats (type/ave/delta/count) on step 9540000
Bond:   1   1         1.15462e-06     9360
Angle:  1   109.47    9.41555e-05     4680
   9540000   153.34326     -2191.5325      0             -1834.7712     -23.742998    
SHAKE stats (type/ave/delta/count) on step 9550000
Bond:   1   1         1.46936e-06     9360
Angle:  1   109.47    0.000134245     4680
   9550000   157.65836     -2196.5522      0             -1829.7516     -1.4160715    
SHAKE stats (type/ave/delta/count) on step 9560000
Bond:   1   1         1.2427e-06      9360
Angle:  1   109.47    0.000101418     4680
   9560000   156.21329     -2195.3098      0             -1831.8713     -17.329334    
SHAKE stats (type/ave/delta/count) on step 9570000
Bond:   1   1         1.34218e-06     9360
Angle:  1   109.47    0.000102997     4680
   9570000   155.06146     -2197.2135      0             -1836.4547     -0.9959509    
SHAKE stats (type/ave/delta/count) on step 9580000
Bond:   1   1         1.23422e-06     9360
Angle:  1   109.47    0.000101616     4680
   9580000   155.43386     -2185.8767      0             -1824.2515     -10.327759    
SHAKE stats (type/ave/delta/count) on step 9590000
Bond:   1   1         1.42321e-06     9360
Angle:  1   109.47    0.000109253     4680
   9590000   154.01824     -2191.6605      0             -1833.3289     -16.647701    
SHAKE stats (type/ave/delta/count) on step 9600000
Bond:   1   1         1.29668e-06     9360
Angle:  1   109.47    0.000111716     4680
   9600000   156.63784     -2183.5615      0             -1819.1352     -5.3213576    
SHAKE stats (type/ave/delta/count) on step 9610000
Bond:   1   1         1.33532e-06     9360
Angle:  1   109.47    9.41459e-05     4680
   9610000   156.1703      -2194.5494      0             -1831.2109     -16.556744    
SHAKE stats (type/ave/delta/count) on step 9620000
Bond:   1   1         1.54167e-06     9360
Angle:  1   109.47    0.000110096     4680
   9620000   154.2721      -2186.603       0             -1827.6808     -2.0711022    
SHAKE stats (type/ave/delta/count) on step 9630000
Bond:   1   1         1.3362e-06      9360
Angle:  1   109.47    9.60801e-05     4680
   9630000   156.63629     -2192.5027      0             -1828.08       -13.73518     
SHAKE stats (type/ave/delta/count) on step 9640000
Bond:   1   1         1.36846e-06     9360
Angle:  1   109.47    0.000104615     4680
   9640000   156.60271     -2183.1725      0             -1818.8279     -11.871019    
SHAKE stats (type/ave/delta/count) on step 9650000
Bond:   1   1         1.26789e-06     9360
Angle:  1   109.47    0.000112209     4680
   9650000   156.77254     -2183.3842      0             -1818.6445      6.3789996    
SHAKE stats (type/ave/delta/count) on step 9660000
Bond:   1   1         1.42045e-06     9360
Angle:  1   109.47    9.81539e-05     4680
   9660000   156.37897     -2195.6396      0             -1831.8156     -9.2219732    
SHAKE stats (type/ave/delta/count) on step 9670000
Bond:   1   1         1.38183e-06     9360
Angle:  1   109.47    0.000103302     4680
   9670000   154.84562     -2183.2869      0             -1823.0303     -6.404982     
SHAKE stats (type/ave/delta/count) on step 9680000
Bond:   1   1         1.20138e-06     9360
Angle:  1   109.47    0.000119172     4680
   9680000   155.44122     -2196.3291      0             -1834.6868     -17.742148    
SHAKE stats (type/ave/delta/count) on step 9690000
Bond:   1   1         1.39239e-06     9360
Angle:  1   109.47    0.000115211     4680
   9690000   155.64928     -2190.1893      0             -1828.063      -15.419162    
SHAKE stats (type/ave/delta/count) on step 9700000
Bond:   1   1         1.34128e-06     9360
Angle:  1   109.47    0.00010271      4680
   9700000   157.86288     -2201.2908      0             -1834.0143     -17.984824    
SHAKE stats (type/ave/delta/count) on step 9710000
Bond:   1   1         1.47069e-06     9360
Angle:  1   109.47    0.000106452     4680
   9710000   155.21378     -2190.8274      0             -1829.7142     -6.0618774    
SHAKE stats (type/ave/delta/count) on step 9720000
Bond:   1   1         1.38223e-06     9360
Angle:  1   109.47    9.72002e-05     4680
   9720000   157.84221     -2189.1012      0             -1821.8728      0.3264127    
SHAKE stats (type/ave/delta/count) on step 9730000
Bond:   1   1         1.45856e-06     9360
Angle:  1   109.47    0.000110553     4680
   9730000   156.09803     -2192.9797      0             -1829.8093     -8.9579828    
SHAKE stats (type/ave/delta/count) on step 9740000
Bond:   1   1         1.51284e-06     9360
Angle:  1   109.47    0.00010278      4680
   9740000   155.56896     -2186.8663      0             -1824.9268     -14.326291    
SHAKE stats (type/ave/delta/count) on step 9750000
Bond:   1   1         1.26602e-06     9360
Angle:  1   109.47    9.33635e-05     4680
   9750000   155.27937     -2195.3893      0             -1834.1236     -7.6647745    
SHAKE stats (type/ave/delta/count) on step 9760000
Bond:   1   1         1.27882e-06     9360
Angle:  1   109.47    0.000107779     4680
   9760000   156.86219     -2183.0278      0             -1818.0795     -8.349501     
SHAKE stats (type/ave/delta/count) on step 9770000
Bond:   1   1         1.64506e-06     9360
Angle:  1   109.47    0.000105021     4680
   9770000   158.26704     -2177.9158      0             -1809.6991     -19.632082    
SHAKE stats (type/ave/delta/count) on step 9780000
Bond:   1   1         1.09772e-06     9360
Angle:  1   109.47    0.000112282     4680
   9780000   155.56355     -2198.062       0             -1836.1351     -6.693578     
SHAKE stats (type/ave/delta/count) on step 9790000
Bond:   1   1         1.44243e-06     9360
Angle:  1   109.47    0.000110486     4680
   9790000   152.6847      -2182.4753      0             -1827.2462     -7.1215118    
SHAKE stats (type/ave/delta/count) on step 9800000
Bond:   1   1         1.29143e-06     9360
Angle:  1   109.47    9.96627e-05     4680
   9800000   155.15557     -2190.2314      0             -1829.2537     -32.283722    
SHAKE stats (type/ave/delta/count) on step 9810000
Bond:   1   1         1.23529e-06     9360
Angle:  1   109.47    0.000107876     4680
   9810000   156.72935     -2187.1434      0             -1822.5042     -13.405978    
SHAKE stats (type/ave/delta/count) on step 9820000
Bond:   1   1         1.44329e-06     9360
Angle:  1   109.47    0.000113271     4680
   9820000   155.89367     -2194.9092      0             -1832.2143     -8.3524749    
SHAKE stats (type/ave/delta/count) on step 9830000
Bond:   1   1         1.29721e-06     9360
Angle:  1   109.47    0.000105694     4680
   9830000   156.39845     -2179.0219      0             -1815.1526     -0.86349279   
SHAKE stats (type/ave/delta/count) on step 9840000
Bond:   1   1         1.30966e-06     9360
Angle:  1   109.47    9.57017e-05     4680
   9840000   156.66725     -2184.9569      0             -1820.4622     -2.2818574    
SHAKE stats (type/ave/delta/count) on step 9850000
Bond:   1   1         1.36223e-06     9360
Angle:  1   109.47    0.000100918     4680
   9850000   155.15658     -2194.9178      0             -1833.9378     -21.053492    
SHAKE stats (type/ave/delta/count) on step 9860000
Bond:   1   1         1.22711e-06     9360
Angle:  1   109.47    9.7679e-05      4680
   9860000   155.2284      -2185.4563      0             -1824.3092     -11.181778    
SHAKE stats (type/ave/delta/count) on step 9870000
Bond:   1   1         1.18338e-06     9360
Angle:  1   109.47    9.92673e-05     4680
   9870000   153.45749     -2186.449       0             -1829.4219     -20.922963    
SHAKE stats (type/ave/delta/count) on step 9880000
Bond:   1   1         1.32745e-06     9360
Angle:  1   109.47    9.59832e-05     4680
   9880000   155.74017     -2183.8014      0             -1821.4636     -19.669573    
SHAKE stats (type/ave/delta/count) on step 9890000
Bond:   1   1         1.33842e-06     9360
Angle:  1   109.47    0.000119483     4680
   9890000   155.90919     -2185.3555      0             -1822.6245     -3.2212478    
SHAKE stats (type/ave/delta/count) on step 9900000
Bond:   1   1         1.415e-06       9360
Angle:  1   109.47    0.000113939     4680
   9900000   155.65594     -2186.6821      0             -1824.5402     -11.971945    
SHAKE stats (type/ave/delta/count) on step 9910000
Bond:   1   1         1.30531e-06     9360
Angle:  1   109.47    9.68669e-05     4680
   9910000   155.93476     -2189.1654      0             -1826.3748     -14.433475    
SHAKE stats (type/ave/delta/count) on step 9920000
Bond:   1   1         1.53031e-06     9360
Angle:  1   109.47    0.000107092     4680
   9920000   155.47557     -2193.7924      0             -1832.0702     -11.778079    
SHAKE stats (type/ave/delta/count) on step 9930000
Bond:   1   1         1.99602e-06     9360
Angle:  1   109.47    0.0001492       4680
   9930000   153.81884     -2194.084       0             -1836.2163     -20.016532    
SHAKE stats (type/ave/delta/count) on step 9940000
Bond:   1   1         1.2536e-06      9360
Angle:  1   109.47    0.000102262     4680
   9940000   154.3531      -2189.8053      0             -1830.6946     -17.068836    
SHAKE stats (type/ave/delta/count) on step 9950000
Bond:   1   1         1.31358e-06     9360
Angle:  1   109.47    9.66519e-05     4680
   9950000   156.63624     -2185.5881      0             -1821.1656     -14.322827    
SHAKE stats (type/ave/delta/count) on step 9960000
Bond:   1   1         1.41347e-06     9360
Angle:  1   109.47    9.99513e-05     4680
   9960000   155.37661     -2187.0368      0             -1825.5448     -7.1803262    
SHAKE stats (type/ave/delta/count) on step 9970000
Bond:   1   1         1.27879e-06     9360
Angle:  1   109.47    9.14022e-05     4680
   9970000   158.144       -2189.5807      0             -1821.6502     -16.040282    
SHAKE stats (type/ave/delta/count) on step 9980000
Bond:   1   1         1.37992e-06     9360
Angle:  1   109.47    0.000111486     4680
   9980000   157.09672     -2198.3259      0             -1832.832      -7.5645684    
SHAKE stats (type/ave/delta/count) on step 9990000
Bond:   1   1         1.38021e-06     9360
Angle:  1   109.47    0.000104482     4680
   9990000   153.95457     -2203.6596      0             -1845.4761     -5.2572293    
SHAKE stats (type/ave/delta/count) on step 10000000
Bond:   1   1         1.50833e-06     9360
Angle:  1   109.47    0.000118692     4680
  10000000   157.0787      -2197.2192      0             -1831.7672     -6.9868538    
Loop time of 13337.8 on 640 procs for 2000000 steps with 22680 atoms

Performance: 12.956 ns/day, 1.852 hours/ns, 149.950 timesteps/s, 3.401 Matom-step/s
100.0% CPU use with 640 MPI tasks x 1 OpenMP threads

MPI task timing breakdown:
Section |  min time  |  avg time  |  max time  |%varavg| %total
---------------------------------------------------------------
Pair    | 0.18563    | 205.31     | 5025.6     |5011.9 |  1.54
Bond    | 0.1534     | 0.30329    | 0.80743    |  17.0 |  0.00
Kspace  | 6860.8     | 11557      | 11856      | 661.1 | 86.65
Neigh   | 487.09     | 514.34     | 523.02     |  41.7 |  3.86
Comm    | 7.7509     | 128.13     | 640.62     |1514.0 |  0.96
Output  | 15.067     | 102.62     | 172.43     | 414.3 |  0.77
Modify  | 320.56     | 716.86     | 878.4      | 531.3 |  5.37
Other   |            | 113.2      |            |       |  0.85

Nlocal:        35.4375 ave         616 max           0 min
Histogram: 546 54 4 3 5 5 3 6 2 12
Nghost:        358.927 ave        4184 max           0 min
Histogram: 444 111 25 17 18 7 3 6 3 6
Neighs:        6326.29 ave      169165 max           0 min
Histogram: 601 6 5 4 4 6 1 2 4 7

Total # of neighbors = 4048828
Ave neighs/atom = 178.51975
Ave special neighs/atom = 1.2380952
Neighbor list builds = 106571
Dangerous builds = 0
undump DUMP4
write_restart nvt_prod.restart.*
System init for write_restart ...
PPPM initialization ...
  using 12-bit tables for long-range coulomb (src/kspace.cpp:342)
  G vector (1/distance) = 0.30003007
  grid = 96 90 96
  stencil order = 5
  estimated absolute RMS force accuracy = 0.00016542148
  estimated relative force accuracy = 1.1487886e-05
  using double precision KISS FFT
  3d grid and FFT values/proc = 5472 1440
Generated 0 of 3 mixed pair_coeff terms from geometric mixing rule
write_data nvt_prod_final.lammps-data pair ij
System init for write_data ...
PPPM initialization ...
  using 12-bit tables for long-range coulomb (src/kspace.cpp:342)
  G vector (1/distance) = 0.30003007
  grid = 96 90 96
  stencil order = 5
  estimated absolute RMS force accuracy = 0.00016542148
  estimated relative force accuracy = 1.1487886e-05
  using double precision KISS FFT
  3d grid and FFT values/proc = 5472 1440
Generated 0 of 3 mixed pair_coeff terms from geometric mixing rule

Total wall time: 18:28:12
