LAMMPS (4 Feb 2025)
OMP_NUM_THREADS environment is not set. Defaulting to 1 thread. (src/comm.cpp:99)
  using 1 OpenMP thread(s) per MPI task
# LAMMPS script for continuing NVT simulation

atom_modify map yes
newton      on

read_restart nvt_prod.restart.880000
Reading restart file ...
  restart file = 4 Feb 2025, LAMMPS = 4 Feb 2025
  restoring atom style full from restart
  orthogonal box = (0 0 0) to (151.69788 145.97135 151.07317)
  16 by 8 by 8 MPI processor grid
  pair style symmetrix/mace stores no restart info
  11640 atoms
Finding 1-2 1-3 1-4 neighbors ...
  special bond factors lj:    0        0        0       
  special bond factors coul:  0        0        0       
     0 = max # of 1-2 neighbors
     0 = max # of 1-3 neighbors
     0 = max # of 1-4 neighbors
     1 = max # of special neighbors
  special bonds CPU = 4.253 seconds
  read_restart CPU = 4.409 seconds

pair_style  symmetrix/mace
pair_coeff  * * ../../../00-common/models/ch2o-dens-inv_swa-1-6-8.json C H O
Loading MACE model from '../../../00-common/models/ch2o-dens-inv_swa-1-6-8.json' ... success
  mapping LAMMPS type 1 (C) to MACE type 1
  mapping LAMMPS type 2 (H) to MACE type 0
  mapping LAMMPS type 3 (O) to MACE type 2

group graphene type 1
8640 atoms in group graphene
group H2O type 2 3
3000 atoms in group H2O

thermo 1000

######### NVT production for 80 ps #############

dump DUMP1 all atom 100 nvt_prod_11.lammpstrj
timestep 0.001
fix NVT1 graphene nvt temp 300 300 0.1
Resetting global fix info from restart file:
  fix style: nvt, fix ID: NVT1
fix NVT2 H2O nvt temp 300 300 0.1
Resetting global fix info from restart file:
  fix style: nvt, fix ID: NVT2
run 80000
All restart file global fix info was re-assigned
Neighbor list info ...
  update: every = 1 steps, delay = 0 steps, check = yes
  max neighbors/atom: 2000, page size: 100000
  master list distance cutoff = 8
  ghost atom cutoff = 8
  binsize = 4, bins = 38 37 38
  1 neighbor lists, perpetual/occasional/extra = 1 0 0
  (1) pair symmetrix/mace, perpetual
      attributes: full, newton on
      pair build: full/bin
      stencil: full/bin/3d
      bin: standard
Per MPI rank memory allocation (min/avg/max) = 5.921 | 6.175 | 8.091 Mbytes
   Step          Temp          E_pair         E_mol          TotEng         Press     
    880000   303.55129     -1809874.1      0             -1809417.4      67.134203    
    881000   296.59739     -1809879.1      0             -1809432.9      64.129916    
    882000   301.37049     -1809878.1      0             -1809424.7      67.995903    
    883000   301.02194     -1809880.6      0             -1809427.8      60.746191    
    884000   299.9904      -1809878.2      0             -1809426.9      49.941218    
    885000   302.66502     -1809870.7      0             -1809415.4      86.965797    
    886000   297.33184     -1809874.7      0             -1809427.4      61.397681    
    887000   303.86658     -1809873.8      0             -1809416.6      61.793618    
    888000   300.36459     -1809871.2      0             -1809419.3      78.314937    
    889000   299.14876     -1809877.3      0             -1809427.3      62.1108      
    890000   299.22461     -1809868        0             -1809417.9      40.134149    
    891000   300.79489     -1809880.9      0             -1809428.3      101.8511     
    892000   298.64471     -1809870        0             -1809420.7      52.889011    
    893000   298.33537     -1809884.7      0             -1809435.8      52.840052    
    894000   299.91318     -1809877.1      0             -1809425.9      100.94072    
    895000   302.17338     -1809876.3      0             -1809421.7      5.8735597    
    896000   299.85593     -1809879.2      0             -1809428.1      131.17166    
    897000   299.48541     -1809878.5      0             -1809427.9      42.139571    
    898000   299.00321     -1809872.5      0             -1809422.6      20.798207    
    899000   298.0318      -1809867.9      0             -1809419.6      58.245601    
    900000   298.49518     -1809875.6      0             -1809426.5      44.183689    
    901000   300.84016     -1809870.5      0             -1809417.9      100.48573    
    902000   297.83362     -1809872        0             -1809423.9      11.813108    
    903000   302.387       -1809867.6      0             -1809412.7      103.36981    
    904000   301.08224     -1809874.4      0             -1809421.4      45.584938    
    905000   292.86184     -1809873.7      0             -1809433.1      22.516754    
    906000   300.44218     -1809877.3      0             -1809425.3      124.76225    
    907000   300.46906     -1809867.7      0             -1809415.6      80.337526    
    908000   296.56915     -1809872.4      0             -1809426.3     -24.345336    
    909000   300.31879     -1809875.4      0             -1809423.6      105.42389    
    910000   301.85287     -1809881.1      0             -1809426.9      81.041969    
    911000   298.58461     -1809877.3      0             -1809428.1      52.940054    
    912000   301.12287     -1809870.6      0             -1809417.6      119.34541    
    913000   301.33236     -1809878        0             -1809424.7      89.223676    
    914000   302.85083     -1809876.6      0             -1809420.9      33.451007    
    915000   302.55003     -1809874.4      0             -1809419.2      113.33104    
    916000   299.49667     -1809879.7      0             -1809429.1      14.08487     
    917000   300.85884     -1809877.3      0             -1809424.7      79.779861    
    918000   301.15944     -1809874        0             -1809420.9      52.751421    
    919000   299.46359     -1809885        0             -1809434.5      104.37161    
    920000   300.4515      -1809878.4      0             -1809426.3      30.150075    
    921000   300.95535     -1809878.8      0             -1809426        93.532483    
    922000   302.52421     -1809875.7      0             -1809420.6      18.970503    
    923000   301.97351     -1809877        0             -1809422.7      67.675779    
    924000   300.07976     -1809874.3      0             -1809422.8      52.481989    
    925000   297.55871     -1809883.5      0             -1809435.9      50.238438    
    926000   297.02397     -1809867.9      0             -1809421.1      41.611452    
    927000   303.81782     -1809876.8      0             -1809419.7      106.6168     
    928000   300.49062     -1809881.3      0             -1809429.3      49.543623    
    929000   298.43138     -1809874.2      0             -1809425.2      45.58042     
    930000   300.67919     -1809873.4      0             -1809421        74.269839    
    931000   299.00641     -1809872.5      0             -1809422.7      97.252943    
    932000   301.30901     -1809870.6      0             -1809417.3      42.539978    
    933000   297.82657     -1809875        0             -1809426.9      42.796603    
    934000   299.4262      -1809876.4      0             -1809425.9      103.45895    
    935000   301.18936     -1809870.5      0             -1809417.3      42.537443    
    936000   299.98581     -1809872.3      0             -1809421        48.1057      
    937000   297.76616     -1809878.3      0             -1809430.3      25.720588    
    938000   300.11251     -1809875.9      0             -1809424.4      79.832203    
    939000   302.03157     -1809875.4      0             -1809421        27.206874    
    940000   301.15776     -1809878.3      0             -1809425.3      79.989296    
    941000   300.25959     -1809882.1      0             -1809430.3      22.893656    
    942000   297.26082     -1809868.6      0             -1809421.4      92.462412    
    943000   299.4799      -1809880.5      0             -1809430        64.531545    
    944000   301.2654      -1809879.4      0             -1809426.1      77.942612    
    945000   299.18768     -1809875.6      0             -1809425.4      57.054741    
    946000   303.5985      -1809877.1      0             -1809420.3      82.912512    
    947000   299.29554     -1809875.4      0             -1809425.1      46.421648    
    948000   295.81838     -1809877.9      0             -1809432.8      77.109825    
    949000   301.1159      -1809877.4      0             -1809424.4      47.146308    
    950000   298.55083     -1809878.8      0             -1809429.6      91.435945    
    951000   300.65129     -1809875.8      0             -1809423.5      52.259697    
    952000   299.98748     -1809878.3      0             -1809427        49.867476    
    953000   297.78975     -1809874        0             -1809426        80.636543    
    954000   300.27546     -1809873.7      0             -1809421.9      37.316615    
    955000   302.01958     -1809873        0             -1809418.6      71.268975    
    956000   301.62049     -1809873.4      0             -1809419.7      69.161342    
    957000   298.6579      -1809874.1      0             -1809424.8      73.997584    
    958000   302.77979     -1809875.1      0             -1809419.6      57.189839    
    959000   300.04127     -1809879.7      0             -1809428.3      52.428002    
    960000   300.54591     -1809865.4      0             -1809413.2      83.224998    
Loop time of 55208.3 on 1024 procs for 80000 steps with 11640 atoms

Performance: 0.125 ns/day, 191.695 hours/ns, 1.449 timesteps/s, 16.867 katom-step/s
100.0% CPU use with 1024 MPI tasks x 1 OpenMP threads

MPI task timing breakdown:
Section |  min time  |  avg time  |  max time  |%varavg| %total
---------------------------------------------------------------
Pair    | 0.18944    | 5736.9     | 55062      |15053.0 | 10.39
Bond    | 0.003163   | 0.0074391  | 0.047103   |   9.1 |  0.00
Neigh   | 0.017504   | 0.14404    | 4.9202     | 116.4 |  0.00
Comm    | 0.4763     | 1479.2     | 24589      |11193.9 |  2.68
Output  | 0.72788    | 5.2863     | 10.518     | 125.5 |  0.01
Modify  | 6.1704     | 47979      | 55195      |6589.7 | 86.91
Other   |            | 7.576      |            |       |  0.01

Nlocal:        11.3672 ave         270 max           0 min
Histogram: 889 1 111 5 3 3 2 3 1 6
Nghost:        93.3916 ave        1466 max           0 min
Histogram: 767 146 72 12 10 6 4 2 3 2
Neighs:              0 ave           0 max           0 min
Histogram: 1024 0 0 0 0 0 0 0 0 0
FullNghs:      1226.55 ave       52426 max           0 min
Histogram: 946 56 4 6 1 3 2 0 3 3

Total # of neighbors = 1255990
Ave neighs/atom = 107.90292
Ave special neighs/atom = 0
Neighbor list builds = 3774
Dangerous builds = 0

write_restart nvt_prod.restart.*
System init for write_restart ...
write_data nvt_prod_final.lammps-data
System init for write_data ...

Total wall time: 15:20:30
