LAMMPS data file via write_data, version 4 Feb 2025, timestep = 960000, units = metal

11640 atoms
3 atom types

0 151.69787999999997 xlo xhi
0 145.97135308915924 ylo yhi
0 151.07316997686289 zlo zhi

Masses

1 12.01099999691024
2 1.007999999740698
3 15.99899999588435

Atoms # full

9520 0 2 0 2.1444961240132154 3.3714438037258168 3.2294681459718197 0 0 0
9519 0 2 0 3.1688789503382133 4.181015281570354 2.3823623361596784 0 0 0
11080 0 3 0 2.796724291726466 3.2735727972603423 2.465247018012085 0 0 0
9485 0 2 0 6.412325754066299 15.146011067368148 4.044685576599595 0 0 0
8763 0 2 0 4.426776588949066 2.4817648141264703 2.001985860245257 0 0 0
9656 0 2 0 3.928229943652068 16.221962801687376 1.340538402419776 0 0 0
9561 0 2 0 4.296761429685139 6.347630315015106 2.2366674224694663 0 0 0
9562 0 2 0 2.739827436453449 6.358615083667626 2.1295381649286598 0 0 0
8673 0 2 0 0.8417307319121918 7.775415141967215 2.6532071675349758 0 0 0
11101 0 3 0 3.5550411731284512 5.88461476213321 1.8574394256297841 0 0 0
10657 0 3 0 1.4629499786753501 7.790515471791239 1.8766122652440975 0 0 0
11488 0 3 0 2.0734732828353173 3.184010187250309 0.04192160144786512 0 0 0
10168 0 2 0 5.203223046964849 8.907774615748624 1.6476022168808258 0 0 0
10167 0 2 0 6.239204479662398 7.707815442414363 1.439669538661478 0 0 0
11404 0 3 0 5.693478668940302 8.16402930683124 2.115458878628509 0 0 0
10249 0 2 0 5.358287790586325 1.2384593125157128 0.41769436009567584 0 0 0
9927 0 2 0 7.143690763828734 9.496085073992814 2.7118361566833875 0 0 0
9928 0 2 0 8.69196634897325 9.642511655586214 2.7443016228886226 0 0 0
11405 0 3 0 0.7777516425871764 15.28705967626809 5.051977944549315 0 0 0
8674 0 2 0 2.0956423389335828 8.545431993496132 2.016597801826777 0 0 0
9459 0 2 0 0.6529864271688007 12.328583435219594 2.7374554073608195 0 0 0
8996 0 2 0 4.389654819043124 12.385566622988605 2.6172854431258012 0 0 0
8995 0 2 0 2.744077962579151 12.768173098630244 2.5290463634166587 0 0 0
10818 0 3 0 3.590344947891533 12.34407272707045 2.0180531025115136 0 0 0
9538 0 2 0 3.2997678956247847 10.785687673984663 1.2655651757826003 0 0 0
11089 0 3 0 3.3115578116046063 9.7790880564974 1.14743674521593 0 0 0
10902 0 3 0 7.584747230129514 12.213577132354406 0.8818318377498756 0 0 0
9486 0 2 0 5.362775060194359 16.321801303757894 4.257105249511237 0 0 0
10315 0 2 0 0.3209069863089743 17.913862315750215 6.840439234368748 0 0 0
11063 0 3 0 6.243178966066532 16.11467480736695 3.8246966083968217 0 0 0
11050 0 3 0 1.1736832479791162 13.142174766423167 2.9468769214129873 0 0 0
9460 0 2 0 1.110405069484986 13.688709825651857 2.1487823626654685 0 0 0
9163 0 2 0 7.425195927492653 11.456974560633931 1.4958122503567095 0 0 0
11284 0 3 0 7.877292721610957 10.13439950646373 2.5617854417579147 0 0 0
10063 0 2 0 7.025803339924154 13.338898680457874 2.753341462148688 0 0 0
11352 0 3 0 6.459948221908899 13.122341019474963 3.5544203182241794 0 0 0
10064 0 2 0 6.676112395184612 12.22388119417212 3.763163280524655 0 0 0
10169 0 2 0 0.39069113184196674 14.462015476768636 4.714018926328094 0 0 0
9677 0 2 0 3.882774450371893 13.385522324159329 0.04302020073082348 0 0 0
9655 0 2 0 2.5060642496018293 15.791696349904258 1.1670034956630415 0 0 0
10060 0 2 0 3.5681011168585677 6.876866967946337 0.43145149658048243 0 0 0
9726 0 2 0 2.9570864088595523 15.800667521669608 5.004146857428197 0 0 0
11373 0 3 0 0.7646501303225164 3.1738662120116556 4.2264580615544265 0 0 0
9725 0 2 0 3.1498244983814083 16.76191991287654 3.7263086026744072 0 0 0
11183 0 3 0 3.3156008961634913 16.66928664335538 4.701961812784713 0 0 0
8880 0 2 0 6.316203312239706 16.273571876742125 0.7249677741491092 0 0 0
8879 0 2 0 6.224566733363007 16.820530613811933 2.147047422830499 0 0 0
10336 0 2 0 2.296663457123802 3.2021348271872356 1.1137304746296293 0 0 0
10760 0 3 0 6.002404484505705 17.08184839197018 1.2373918311747258 0 0 0
11148 0 3 0 3.059195193443301 16.26922819487153 1.823832438603455 0 0 0
10702 0 3 0 5.351908245768915 2.2561648480239618 1.6354599547358735 0 0 0
10170 0 2 0 0.2145587057943401 15.928287853426932 4.471191239385934 0 0 0
8764 0 2 0 5.693621424968952 3.0590183247071066 1.3035945837877585 0 0 0
10253 0 2 0 0.40150678581088045 17.961080030104622 4.294053368948883 0 0 0
11086 0 3 0 0.7891613022763155 14.848644485395702 0.8039548045997394 0 0 0
9428 0 2 0 9.24172381219509 4.056989389076343 0.531151821692588 0 0 0
10106 0 2 0 0.7150016608270281 3.4430869672613134 5.185242530588622 0 0 0
9164 0 2 0 7.009355662073263 12.003956724848717 0.10836386673806772 0 0 0
9053 0 2 0 2.716021225705808 18.09986079596992 1.509752550298323 0 0 0
10316 0 2 0 1.7244012621299536 17.418071899193578 6.319749441620041 0 0 0
9537 0 2 0 2.911727131704975 9.623004934871151 0.24457083610177122 0 0 0
11478 0 3 0 1.1651792927290365 18.19395033429044 6.464503789617851 0 0 0
9764 0 2 0 9.337892014272706 13.89218081454811 1.0414783792144036 0 0 0
6862 0 1 0 0.9886531537811564 3.9108127615845967 141.25871968642727 0 0 -1
6866 0 1 0 1.1570205352739025 6.329253031890672 140.46968167136095 0 0 -1
6871 0 1 0 1.9522177243205345 7.504421103864359 140.24631473445118 0 0 -1
6867 0 1 0 1.7907605508971252 5.0986450603673115 141.05420570216992 0 0 -1
6872 0 1 0 3.2924224650629657 7.47999511943197 140.66775515452446 0 0 -1
6870 0 1 0 1.2934384323177837 8.71338151507839 139.73367112146923 0 0 -1
7109 0 1 0 4.001836553245649 8.747490111165657 140.55937308480378 0 0 -1
8897 0 2 0 7.900088893316856 14.000043328279265 146.6745412963145 0 0 -1
10138 0 2 0 5.3940052347628065 16.263904170699302 145.86847346901547 0 0 -1
6874 0 1 0 1.3811887059305763 11.035423807574317 139.1381654292276 0 0 -1
6875 0 1 0 2.079332962482432 9.905894722895168 139.57998877976217 0 0 -1
6879 0 1 0 2.20353254077786 12.276858833511591 139.06342974472287 0 0 -1
6876 0 1 0 3.4360796244200555 9.909193034703277 139.99706830137092 0 0 -1
6880 0 1 0 3.525778722721325 12.301647868206445 139.50071284651906 0 0 -1
7113 0 1 0 4.207933861606691 11.080659915756629 139.91576722349262 0 0 -1
7114 0 1 0 5.585361332793856 11.100683085044876 140.28953609571835 0 0 -1
7115 0 1 0 6.217003975617178 9.913350911885681 140.67280901154956 0 0 -1
7119 0 1 0 6.275225090090507 12.382966333105385 140.21496860675595 0 0 -1
7120 0 1 0 7.651011331542533 12.366650638103016 140.58142122407148 0 0 -1
9532 0 2 0 0.909604060682182 14.402428922986351 151.01843461453478 0 0 -1
6878 0 1 0 1.4545339806795534 13.500985602612962 138.82341444586726 0 0 -1
9687 0 2 0 6.9374250948814895 18.114017019036098 142.68469491448926 0 0 -1
6882 0 1 0 1.4588429164538723 16.009611955385385 138.68974095179493 0 0 -1
6883 0 1 0 2.154130789138558 14.730528205476322 138.8949427783676 0 0 -1
6884 0 1 0 3.5180958291349027 14.745704334841307 139.2898878065074 0 0 -1
6888 0 1 0 3.573321448101073 17.294431315126086 139.18720297280123 0 0 -1
6887 0 1 0 2.171104826934029 17.259796120566158 138.87364244295804 0 0 -1
7117 0 1 0 4.217165116375123 13.544775101078535 139.54097944260175 0 0 -1
7121 0 1 0 4.224557545053288 15.969662709382012 139.42862315401774 0 0 -1
7122 0 1 0 5.655063633046263 16.050251069268043 139.55976977116703 0 0 -1
7118 0 1 0 5.600120836982881 13.564145194375154 139.92294721805877 0 0 -1
7123 0 1 0 6.336062075430721 14.778420800235741 139.84670489184472 0 0 -1
7124 0 1 0 7.736714170402181 14.82332997323998 140.13845844797234 0 0 -1
7128 0 1 0 7.859943062629266 17.24077854157966 139.7488601450815 0 0 -1
7127 0 1 0 6.4134600928526675 17.266719110514337 139.53454766026468 0 0 -1
7357 0 1 0 8.410541196564425 13.612968628757772 140.54520144729636 0 0 -1
7361 0 1 0 8.512262502198242 16.028228369173686 140.11995354304446 0 0 -1
6863 0 1 0 1.546731293166347 2.8187336558505858 142.0545745253207 0 0 -1
6858 0 1 0 0.7870676322786927 1.6249304115251606 142.40649479545772 0 0 -1
7101 0 1 0 3.680664198824966 4.049344993170789 142.2405233124089 0 0 -1
6864 0 1 0 2.928951313930266 2.9004600422811575 142.5061828909058 0 0 -1
9609 0 2 0 5.017931131723448 2.226019002334836 147.26955523807342 0 0 -1
6859 0 1 0 1.3337227669314031 0.5872054273702046 143.24366202002108 0 0 -1
6860 0 1 0 2.6901482615453625 0.6672813992660456 143.54844388323846 0 0 -1
7097 0 1 0 3.4706820037918207 1.8405016735914752 143.22129200089552 0 0 -1
9610 0 2 0 3.5134677971835586 2.1514383032848623 147.46927933086369 0 0 -1
11125 0 3 0 4.1627444633221105 2.7324174255206803 147.10590503241087 0 0 -1
11505 0 3 0 8.759581521986755 18.20915194341313 146.7551212246663 0 0 -1
7098 0 1 0 4.855421321882597 1.8914228256004226 143.64010996032437 0 0 -1
7099 0 1 0 5.472902515893386 0.812547555053153 144.31225578785174 0 0 -1
7103 0 1 0 5.589349438391246 3.055670148540462 143.34353765279604 0 0 -1
7104 0 1 0 7.008832693146281 3.102205470502902 143.73998547263267 0 0 -1
7100 0 1 0 6.8383447388188605 0.834267575037419 144.6253886748168 0 0 -1
7337 0 1 0 7.682586562941122 1.9436348008324738 144.28349255420702 0 0 -1
7102 0 1 0 5.028933029154718 4.1529224008529395 142.65790990639863 0 0 -1
7341 0 1 0 7.761010180010897 4.252482148122438 143.43195757240738 0 0 -1
7338 0 1 0 9.063138692187552 1.981894406163314 144.68972552301273 0 0 -1
7342 0 1 0 9.202934675874133 4.232795602650062 143.78690730052008 0 0 -1
10986 0 3 0 3.818121375783815 5.5708647110831535 146.66431835488746 0 0 -1
6868 0 1 0 3.133397294508135 5.13346634199537 141.48877417663493 0 0 -1
7105 0 1 0 3.8679208821029203 6.292506319184143 141.23279687649205 0 0 -1
11604 0 3 0 3.6194253927948923 8.395724488540868 146.933840624342 0 0 -1
10568 0 2 0 3.4109416460534607 7.441010264428986 146.9613545493824 0 0 -1
8701 0 2 0 1.1304134706414628 7.335594381023465 143.898020647062 0 0 -1
9332 0 2 0 3.742105492476724 4.591134319774654 146.58789235982658 0 0 -1
10567 0 2 0 4.208548486175036 8.519002343801164 146.0791430461979 0 0 -1
11007 0 3 0 1.9892996210393836 5.894196445775233 144.7448984441086 0 0 -1
9373 0 2 0 2.1419962582623464 5.216998692868168 144.04851557468527 0 0 -1
10671 0 3 0 0.7846940885925164 8.233591263931265 143.71088472477325 0 0 -1
9653 0 2 0 0.4081775946050943 8.74815037553825 145.43470120474225 0 0 -1
9374 0 2 0 2.7679097380213955 5.7357480011511175 145.342570765225 0 0 -1
11147 0 3 0 0.4191534730365218 9.171212502166568 146.3286953914644 0 0 -1
9331 0 2 0 4.742786706040811 5.790559180343752 146.47403413006916 0 0 -1
10526 0 2 0 5.8670396946337915 6.4937387277567575 144.9503269595857 0 0 -1
7111 0 1 0 6.027898116223993 7.538910530841599 141.42370438125414 0 0 -1
7106 0 1 0 5.230262510276556 6.424262676426367 141.70387083872998 0 0 -1
7110 0 1 0 5.3885732503063934 8.718102462914056 140.81265883973663 0 0 -1
7112 0 1 0 7.404494605039629 7.60756875631643 141.81703326598554 0 0 -1
7349 0 1 0 8.145689521187448 8.845109086313489 141.6956422097961 0 0 -1
7107 0 1 0 5.8169915595599395 5.329989690655664 142.39645222207264 0 0 -1
7108 0 1 0 7.191767152277473 5.353141333346944 142.72620852661987 0 0 -1
7345 0 1 0 7.993618503062407 6.484122165017372 142.4307566994862 0 0 -1
11224 0 3 0 7.847131305425961 8.71255087113807 145.8037528051188 0 0 -1
11023 0 3 0 5.048778746796182 13.409128374864974 147.06629191432873 0 0 -1
7346 0 1 0 9.390166060376908 6.528312680605639 142.84236980136149 0 0 -1
8702 0 2 0 1.5764154640381298 8.684081433240934 143.3375778427668 0 0 -1
10651 0 3 0 3.085934280819367 9.780833098467477 143.32640190968186 0 0 -1
8661 0 2 0 2.748620392523583 10.298678658506324 144.0765951116973 0 0 -1
9902 0 2 0 1.482972134221696 10.526141742462789 145.75347536503622 0 0 -1
8662 0 2 0 3.398080918061467 10.423593789880915 142.66239403070497 0 0 -1
11271 0 3 0 2.130625134205846 11.261626091183569 145.38053239747194 0 0 -1
10306 0 2 0 6.060114397294542 8.868594497157186 144.73964571277827 0 0 -1
11473 0 3 0 5.259847799816405 8.231368692023612 144.54512856630313 0 0 -1
7116 0 1 0 7.579426107720856 9.95412502104426 141.11247900676145 0 0 -1
7353 0 1 0 8.320277651274589 11.19543851630548 140.9651448870933 0 0 -1
10305 0 2 0 4.712454402576621 8.795788893943127 143.96209892697703 0 0 -1
11198 0 3 0 7.6991455622203375 11.13133331221971 144.117371810747 0 0 -1
9756 0 2 0 7.275752127905288 11.205624147986624 144.99989060042495 0 0 -1
10089 0 2 0 1.7782340949460025 17.52202469071414 145.60984842824993 0 0 -1
9064 0 2 0 0.6939025222721545 13.329251513024037 142.4346520735954 0 0 -1
11551 0 3 0 4.168876664316426 15.528006741446893 142.5940679832977 0 0 -1
9063 0 2 0 2.2263079373030408 13.988472405744897 142.1184418833028 0 0 -1
10852 0 3 0 1.492433695348362 13.908721818635359 142.71553481905798 0 0 -1
9517 0 2 0 3.3266845002277314 17.440769736739583 142.43693345128042 0 0 -1
11079 0 3 0 2.6561234669879994 18.113100287807228 142.75079195096814 0 0 -1
9518 0 2 0 2.663298693886646 17.949995599680747 143.71871916013149 0 0 -1
10462 0 2 0 4.646724415603959 15.6805796919684 143.45565357755868 0 0 -1
11365 0 3 0 2.59793850318692 17.13872713789032 145.25192119175904 0 0 -1
10778 0 3 0 0.27226791514196663 16.57076108226571 142.4766198550055 0 0 -1
8916 0 2 0 0.9935172616814071 17.19469781821629 142.33739131037566 0 0 -1
8915 0 2 0 0.8227361665736549 15.733314238347312 142.4708869456131 0 0 -1
10090 0 2 0 2.5581350049796816 16.17784049708389 145.32374757719037 0 0 -1
10581 0 2 0 0.9488001263989257 9.889830281001501 149.4370897503236 0 0 -1
9755 0 2 0 7.69782300989866 10.219765732582161 143.8371347672487 0 0 -1
6873 0 1 0 0.014560184173266304 11.009819369889664 138.71366426667103 0 0 -1
10461 0 2 0 4.861809601772799 15.414904431924652 141.96220669167994 0 0 -1
11164 0 3 0 7.189160583920576 17.26895308024763 143.081204517448 0 0 -1
10583 0 2 0 8.485422796300751 14.566934511486362 144.3668078749868 0 0 -1
11612 0 3 0 7.958380780202399 13.832445914417763 144.71794267846332 0 0 -1
11540 0 3 0 8.137684316861154 7.807262140872536 150.6843827577311 0 0 -1
10584 0 2 0 8.115376920434736 13.161486098069716 144.08000798476093 0 0 -1
9688 0 2 0 6.509073212040895 17.278940267108222 143.80838038485928 0 0 -1
10137 0 2 0 6.140546692320353 15.211479906805058 145.1420996734294 0 0 -1
9938 0 2 0 2.0044154959092513 1.4698686204576892 149.94899826666182 0 0 -1
11159 0 3 0 3.8650046898580905 14.025218263089112 150.37541524746104 0 0 -1
9937 0 2 0 3.2140985106629087 0.5224364845012461 150.20167675494616 0 0 -1
10335 0 2 0 1.244009973286495 3.7027193347778913 151.06866436825626 0 0 -1
9429 0 2 0 9.30580748527027 6.503072886787746 147.5166883783134 0 0 -1
9530 0 2 0 3.195602402421957 4.0983663735583225 150.25620901458834 0 0 -1
11085 0 3 0 3.9425283561529914 4.6203399030853936 149.83095807942294 0 0 -1
11289 0 3 0 2.4311240956237383 0.6823821570590368 149.6009044583377 0 0 -1
11445 0 3 0 5.224325123309095 0.5871539919564377 150.6831089746948 0 0 -1
11611 0 3 0 0.5394413084220581 10.724284556675663 149.84277769027344 0 0 -1
6881 0 1 0 0.06983173839987979 16.0011968689551 138.38228840955014 0 0 -1
10431 0 2 0 6.693405702804124 0.2297101836439667 147.70242089797065 0 0 -1
10432 0 2 0 5.990307064150365 0.7896887192748758 148.98162614390702 0 0 -1
10628 0 2 0 6.34892189119762 4.982034657516823 150.63346453350795 0 0 -1
10627 0 2 0 7.475641713020543 4.044332990922609 150.16944832874373 0 0 -1
11536 0 3 0 6.400583307319627 1.033793508530441 148.14784209210305 0 0 -1
9430 0 2 0 8.965879029545569 7.452171003071226 148.73400909858066 0 0 -1
11634 0 3 0 7.2260706650967395 4.611010186601265 150.93741825602606 0 0 -1
6877 0 1 0 0.10905962057656812 13.5016256837424 138.5197867284434 0 0 -1
9529 0 2 0 4.060753208188433 4.156760659876652 148.97727922251465 0 0 -1
11275 0 3 0 1.2878428201912908 8.255975326997262 148.8197699509706 0 0 -1
9910 0 2 0 2.063757413148586 7.949189191054799 149.35520935545716 0 0 -1
10059 0 2 0 3.4690176753591317 6.349887436503897 150.0591290662539 0 0 -1
11350 0 3 0 3.4902523763514575 7.204578742895674 150.5361907140688 0 0 -1
10051 0 2 0 4.9927458419528925 8.050974166808782 149.68666090860967 0 0 -1
9654 0 2 0 1.060588053855858 8.628067572372489 146.82156275807128 0 0 -1
9160 0 2 0 9.000828969800876 2.67116364910515 148.79643561657667 0 0 -1
11583 0 3 0 6.301070552908562 5.93575633098441 145.59470855633964 0 0 -1
10525 0 2 0 6.755572230277082 6.617563870447901 146.135760414331 0 0 -1
10386 0 2 0 8.681038979919336 16.7215130198721 143.39182614166782 0 0 -1
10717 0 3 0 6.911722635991273 15.033943918749204 149.64563141059892 0 0 -1
10052 0 2 0 5.442150588404942 8.485892382730803 148.29171757322868 0 0 -1
11346 0 3 0 5.677692774235144 8.640990212637961 149.21706972355582 0 0 -1
9885 0 2 0 6.172644279076636 10.190478663379428 149.64874755458715 0 0 -1
10440 0 2 0 7.455064868358704 8.150975663649797 150.04783595202437 0 0 -1
9803 0 2 0 9.083337694798612 12.553765991606204 147.98830755449373 0 0 -1
8730 0 2 0 7.6977054033990155 16.997981468147913 149.80677315043985 1 -1 -1
9807 0 2 0 8.065172475095011 8.136920206178884 146.55317963428305 0 0 -1
8793 0 2 0 7.4439159891773485 14.651609990163555 148.93510892534675 0 0 -1
8898 0 2 0 9.153305362526162 14.728039471492803 147.17878299362184 0 0 -1
11389 0 3 0 5.660835345907814 16.019126370453648 144.97139109893251 0 0 -1
9360 0 2 0 3.6922386656123156 10.041337257311522 148.14883886607456 0 0 -1
9359 0 2 0 4.32036885826294 11.194814074635548 148.9489093250127 0 0 -1
11000 0 3 0 3.430789549409984 10.77990107534023 148.76291113558275 0 0 -1
9901 0 2 0 2.7069261455273095 11.599414599727227 146.15082566622988 0 0 -1
9651 0 2 0 1.0489733546318685 13.462210796125763 148.8605442074791 0 0 -1
9652 0 2 0 2.136597094098333 12.491977163699703 148.76740399755153 0 0 -1
11146 0 3 0 1.9582899708996344 13.437842519017549 148.53005244336615 0 0 -1
9678 0 2 0 3.032105118057946 13.74730037054676 149.89961431782652 0 0 -1
11293 0 3 0 4.853303866964889 17.500083201774114 147.8845599103687 0 0 -1
8794 0 2 0 6.118896526501418 14.39437514440083 149.72318581106893 0 0 -1
10982 0 3 0 0.3125561246305521 0.6349480499513654 146.36310723285385 0 0 -1
9886 0 2 0 7.2620300070895 11.293665843166647 149.1843482608079 0 0 -1
11263 0 3 0 6.476215634452052 11.160251213572963 149.735053674795 0 0 -1
9939 0 2 0 5.534049617893401 11.60576378232212 146.69648044178902 0 0 -1
11290 0 3 0 5.951362513782061 10.80100071751964 146.37519177322176 0 0 -1
9940 0 2 0 6.655221570890774 10.58202949812101 146.95698784857115 0 0 -1
11036 0 3 0 2.7986134680588566 14.286451516379838 145.6670156602803 0 0 -1
9354 0 2 0 1.1131545823799387 17.200052616816528 148.81179091895223 0 0 -1
9909 0 2 0 0.49777863531480726 7.758921095832029 149.1374931529741 0 0 -1
9432 0 2 0 2.7149126363156286 14.094144221815434 144.7446807836491 0 0 -1
9405 0 2 0 4.214373739157455 13.722845783567845 146.59774980880275 0 0 -1
10997 0 3 0 2.090357801592635 17.068496782764726 148.76987182823368 0 0 -1
9945 0 2 0 4.0941956091943315 16.90111129161004 147.9509130467537 0 0 -1
9353 0 2 0 2.3906061411901764 17.906420021022168 149.14100883713547 0 0 -1
9431 0 2 0 1.8565999077499693 13.991294651761494 146.0371541488538 0 0 -1
9406 0 2 0 4.7437963818604265 13.55186119903566 148.00227289722633 0 0 -1
9159 0 2 0 7.551262219004704 2.5094780743565592 148.4940183655135 0 0 -1
10769 0 3 0 8.446826527004847 14.179190298004746 147.47761080446068 0 0 -1
9946 0 2 0 5.3724895062267315 17.323973839690748 148.66566163151631 0 0 -1
8729 0 2 0 8.68641487009802 18.007696515949135 150.331438888295 1 -1 -1
10685 0 3 0 7.974072034627903 17.909157778099004 149.69441735534323 1 -1 -1
11222 0 3 0 9.17330923640859 11.523931513501322 148.02649065208755 0 0 -1
9808 0 2 0 8.73082957045431 8.997313534952795 145.4933479202537 0 0 -1
10900 0 3 0 8.224374589246812 3.16090280700293 148.8068110678933 0 0 -1
11200 0 3 0 0.14576327259790076 13.726668199133112 146.2943527036848 0 0 -1
9143 0 2 0 0.4529276590427219 5.78294954448067 145.73746011529354 0 0 -1
11035 0 3 0 9.00447019194776 7.45590349761023 147.7569381437644 0 0 -1
10439 0 2 0 8.025422517311652 6.850664088508465 150.8362641791036 0 0 -1
9324 0 2 0 0.6217087003618041 1.4913101914532363 146.8975732166178 0 0 -1
9099 0 2 0 4.124409337686086 20.40321561677732 3.2836123151829253 0 0 0
10870 0 3 0 3.8441262246320025 20.978265503502417 2.4650645818340045 0 0 0
9100 0 2 0 4.649316923797782 20.886636627235678 1.9832407958902447 0 0 0
10868 0 3 0 3.452891314364913 35.29207086340052 0.7707697399595439 0 0 0
9875 0 2 0 7.816918891160803 21.482187682955196 4.48358373813179 0 0 0
9054 0 2 0 2.8334102350187913 19.70193766447766 1.7233096518843078 0 0 0
10847 0 3 0 2.252618857299422 18.896387046445184 1.5965484117504898 0 0 0
10543 0 2 0 6.636911959591125 32.564958240592105 0.05625440632876986 0 0 0
10521 0 2 0 5.256897076756599 19.307464378738693 4.868399973537495 0 0 0
9095 0 2 0 3.009102648826317 34.599273438105804 0.2253227262966456 0 0 0
9185 0 2 0 6.981285717668633 20.368337008726943 1.0637588050026738 0 0 0
10913 0 3 0 7.33217053828795 20.458278352381594 1.9827453395044639 0 0 0
9186 0 2 0 8.101447330441928 21.0435955764141 1.9587962420679512 0 0 0
10265 0 2 0 0.6261910156174741 19.14709432009958 1.1384459306219332 0 0 0
11592 0 3 0 7.1067161618325025 32.22117531359308 0.8547404296777804 0 0 0
8739 0 2 0 7.365135751155062 19.495776911427217 3.569118339552048 0 1 0
10522 0 2 0 3.7245485195107007 18.951463703932752 4.956646450910509 0 0 0
10690 0 3 0 7.25567061693722 19.14345948784807 4.482346944189789 0 1 0
8740 0 2 0 7.602186373078102 18.269380952779812 4.467452718012011 0 1 0
9368 0 2 0 5.736663166528739 32.699694775095956 3.046770567479211 0 0 0
8693 0 2 0 2.2999749148384927 21.0896273418857 5.309225255272975 0 0 0
9178 0 2 0 9.354519835586892 25.580724314708775 1.3492408905443247 0 0 0
8830 0 2 0 1.4952315237637794 22.247563117329328 1.8925088689536829 0 0 0
10735 0 3 0 1.4807167794945741 22.7534144871159 1.0522926025734243 0 0 0
8829 0 2 0 1.978461295606208 23.601839970667694 1.2835404043584175 0 0 0
10511 0 2 0 2.1346190380311914 26.080288184408488 0.6860376434355879 0 0 0
11576 0 3 0 2.4723118973113656 25.446523098160057 1.343205655263637 0 0 0
11496 0 3 0 2.085288557308345 24.140286432304478 3.6453754600372 0 0 0
10351 0 2 0 2.2081572857671414 24.982545713608914 3.122141871233054 0 0 0
9510 0 2 0 5.2582630634595295 24.17326608675822 0.7135356152671372 0 0 0
11075 0 3 0 5.421048112584883 24.917665654950387 1.2424803962320323 0 0 0
10544 0 2 0 7.993295657316155 32.61512244285703 0.8978991112037806 0 0 0
10512 0 2 0 3.421975104123078 25.568954935335274 1.2439734229165023 0 0 0
11104 0 3 0 8.874466041613415 35.3480419787767 0.2935167995128273 0 0 0
11258 0 3 0 8.35832795119287 22.275194695716475 4.515675039259227 0 0 0
11314 0 3 0 7.4443040079663 24.765793224548947 3.468812042640712 0 0 0
9195 0 2 0 8.804925277136796 23.56068047844162 1.0082676944495892 0 0 0
9988 0 2 0 6.811144957906111 24.84099972334259 2.6894461703872614 0 0 0
9987 0 2 0 8.294366835824576 25.188951951016364 3.2319846402756216 0 0 0
9509 0 2 0 5.98485120323675 25.478162267764926 0.6225453067241952 0 0 0
9876 0 2 0 7.803962526971171 23.016842003857285 4.146213462843093 0 0 0
8768 0 2 0 0.43096596128998993 21.810648224487593 4.297795128068635 0 0 0
11227 0 3 0 3.1720325448314934 30.928852087372057 0.9984075060620629 0 0 0
8920 0 2 0 0.3062847864099973 32.28479387952345 1.5893026197745195 0 0 0
10780 0 3 0 0.9205678630996689 31.910422152408604 2.225701819378559 0 0 0
9814 0 2 0 2.390142591069382 31.141526411734194 1.5438599843160028 0 0 0
9813 0 2 0 3.9467124694775038 31.221027030712065 1.49955121891031 0 0 0
10945 0 3 0 0.9403934148452661 27.020533080971834 0.08555971362576853 0 0 0
8919 0 2 0 1.2277594887090817 32.743484857900604 2.698426713518472 0 0 0
10352 0 2 0 1.6645140103437213 24.353437406357376 4.46592340760985 0 0 0
10100 0 2 0 6.965355044659973 30.5725717941617 1.8783124575419143 0 0 0
10099 0 2 0 5.951185455443938 29.856126214736026 2.768625255071012 0 0 0
11370 0 3 0 6.564999337206198 29.696771639534685 2.0091540487378445 0 0 0
11004 0 3 0 4.952152979636248 32.15437858760956 3.0887432034425677 0 0 0
8694 0 2 0 2.5737584569917598 22.401197718264008 4.511309525190546 0 0 0
11581 0 3 0 4.3514055600119175 19.618019756380573 4.6591818537410505 0 0 0
10667 0 3 0 1.9992123176161494 22.016535727954754 5.231081768180455 0 0 0
9096 0 2 0 4.334275500541573 35.44113857763973 0.3494730369364769 0 0 0
9367 0 2 0 4.360606997895304 32.84482815498885 3.368393208979968 0 0 0
10546 0 2 0 6.657824270277344 28.194257390159443 0.7049990429221831 0 0 0
9305 0 2 0 2.9882557450230336 34.48279713434395 2.4635032612608385 0 0 0
9306 0 2 0 2.0932155003513797 34.759971104541684 3.811580283170859 0 0 0
10429 0 2 0 5.635239109943327 18.5571485385512 0.20181714409286325 0 0 0
10922 0 3 0 0.042447897448277164 35.677399620140825 3.356375136453 0 0 0
10973 0 3 0 2.7106729538479324 34.15936334975672 3.3566304435096725 0 0 0
10009 0 2 0 9.246626854416204 28.366275291723227 0.4665645112837627 0 0 0
9249 0 2 0 0.80514111988851 27.984963422267278 0.01172709023572338 0 0 0
6885 0 1 0 0.08117821795504457 18.465735385741084 138.42426045672175 0 0 -1
6886 0 1 0 1.5198993543042316 18.48729749873283 138.71309606982783 0 0 -1
6889 0 1 0 0.047408848849693604 20.96312425320365 138.44954407769623 0 0 -1
6890 0 1 0 1.450908177226655 21.010952590251716 138.62424020170582 0 0 -1
6891 0 1 0 2.170913646154745 19.753169471052146 138.87352757416127 0 0 -1
6892 0 1 0 3.6129149052548444 19.74941449334282 138.9641964750401 0 0 -1
6895 0 1 0 2.186945383956394 22.18619986360578 138.7133282986071 0 0 -1
6896 0 1 0 3.6490062952527182 22.213506610328388 138.79061456801898 0 0 -1
7125 0 1 0 4.304620382857437 18.48359509541457 139.0895937838919 0 0 -1
7129 0 1 0 4.330818841025878 20.962569523997768 139.00737188172565 0 0 -1
9148 0 2 0 0.20529138266933755 35.05485225032691 147.52662925745548 0 0 -1
7126 0 1 0 5.697201969350309 18.444550585342945 139.2448284877904 0 0 -1
7131 0 1 0 6.428437472329921 19.696955776277466 139.24147423044454 0 0 -1
7130 0 1 0 5.745884327722613 20.94276012374824 139.11669978710285 0 0 -1
7132 0 1 0 7.900680310159662 19.70080266836124 139.46048505108482 0 0 -1
7369 0 1 0 8.569373820742554 20.93286875136801 139.6823375118562 0 0 -1
7365 0 1 0 8.554867801605957 18.496420220539022 139.8060311697674 0 0 -1
7135 0 1 0 6.432097884442443 22.17672578283086 139.22918052797993 0 0 -1
7136 0 1 0 7.848544835334699 22.176126750168144 139.5195184255879 0 0 -1
6893 0 1 0 0.07755395205543228 23.467697742313728 138.55756158358372 0 0 -1
6894 0 1 0 1.4741231918995834 23.468775737343034 138.72639410676092 0 0 -1
6899 0 1 0 2.196807453397927 24.643212476873 138.71528773871452 0 0 -1
6897 0 1 0 0.1788037873896174 25.93038184260994 138.3695699313107 0 0 -1
6898 0 1 0 1.5509403217301283 25.91276671920333 138.53096803743443 0 0 -1
6900 0 1 0 3.5922565073209793 24.693341788308324 138.89492249113408 0 0 -1
7137 0 1 0 4.332240124006991 25.931865579454538 139.02531185640305 0 0 -1
7133 0 1 0 4.316595201155522 23.445921661637218 139.05948165484838 0 0 -1
6903 0 1 0 2.2553805073201643 27.175042907105965 138.7065634118883 0 0 -1
6904 0 1 0 3.6575402874149927 27.180353828755447 138.91181340371296 0 0 -1
9267 0 2 0 2.935138439801733 21.88583903101773 149.3597850487134 0 0 -1
10478 0 2 0 8.27943204873348 35.04984151407919 144.4133146632166 0 0 -1
7134 0 1 0 5.72402111672033 23.467025019136273 139.2444871991812 0 0 -1
7139 0 1 0 6.410920354298661 24.70023078632754 139.3864743902334 0 0 -1
7138 0 1 0 5.725146689671997 25.92436088545696 139.24504171007638 0 0 -1
7140 0 1 0 7.845726393932777 24.705499091518003 139.67374194808488 0 0 -1
7377 0 1 0 8.533862563807808 25.97037396907686 139.8301049587654 0 0 -1
7373 0 1 0 8.48700621183226 23.44497078601033 139.8673989698362 0 0 -1
7143 0 1 0 6.430583806667131 27.207520300983525 139.4521373019182 0 0 -1
7144 0 1 0 7.804739450842482 27.17525062854303 139.7807822323394 0 0 -1
6901 0 1 0 0.1614890729884275 28.40869374220998 138.37586834707372 0 0 -1
6902 0 1 0 1.5841355592890267 28.449824467631977 138.69464427185275 0 0 -1
6907 0 1 0 2.236107019114013 29.681540668980542 138.96687804933862 0 0 -1
6905 0 1 0 0.13088281729079296 30.890901507286614 138.52943862177216 0 0 -1
6906 0 1 0 1.520605418893301 30.87719674367769 138.91914302979595 0 0 -1
6908 0 1 0 3.606315758271532 29.6599916874882 139.19615774335082 0 0 -1
7145 0 1 0 4.263816602560207 30.894799531783047 139.4496986838453 0 0 -1
7141 0 1 0 4.332990280086423 28.421296416936595 139.17914054533577 0 0 -1
7142 0 1 0 5.717691392518704 28.42226449616178 139.43460546765323 0 0 -1
7147 0 1 0 6.4126293689884335 29.687889275310305 139.57617506330806 0 0 -1
7148 0 1 0 7.830015601567334 29.66683915137193 139.89259694961618 0 0 -1
7146 0 1 0 5.645104088210696 30.89038411395374 139.65036848675334 0 0 -1
7385 0 1 0 8.499039217967361 30.881468934190934 140.08168717697947 0 0 -1
7381 0 1 0 8.523806328837821 28.432174302711903 139.91104938214303 0 0 -1
10871 0 3 0 1.9496927232230037 33.438008413337826 150.35498303163547 0 0 -1
6910 0 1 0 1.4872657365810342 33.34573805899114 139.12177221140408 0 0 -1
6911 0 1 0 2.1893143881442874 32.0913335183765 139.19321671119707 0 0 -1
6915 0 1 0 2.1667194083328463 34.58487231386107 139.4727091276709 0 0 -1
6916 0 1 0 3.5137439660227576 34.56107483560428 139.84395810983082 0 0 -1
6912 0 1 0 3.5758963278133074 32.13226964986708 139.42410506785953 0 0 -1
6914 0 1 0 1.4058088363113572 35.8066971793682 139.52246213489522 0 0 -1
11201 0 3 0 0.6017490621208533 18.685094235315585 146.2150017285524 0 0 -1
7149 0 1 0 4.229142134429733 33.297092208416565 139.7950410512568 0 0 -1
7153 0 1 0 4.149601281225398 35.85228748479756 140.1233737760348 0 0 -1
7150 0 1 0 5.617722249475441 33.289192667906086 140.1491839728738 0 0 -1
7151 0 1 0 6.345242114733872 32.10158624016236 140.01574304633422 0 0 -1
7155 0 1 0 6.207573837342629 34.54665736260889 140.48215561921322 0 0 -1
7156 0 1 0 7.597067697741092 34.53606399529028 140.6831185645666 0 0 -1
7152 0 1 0 7.725139692302711 32.05157818042386 140.19717569598404 0 0 -1
7389 0 1 0 8.381091281242579 33.30371825637151 140.50827631048782 0 0 -1
7154 0 1 0 5.527005065692509 35.8126018940921 140.42172355221388 0 0 -1
7393 0 1 0 8.343016115625725 35.72726636018703 141.05389460400298 0 0 -1