LAMMPS (4 Feb 2025)
OMP_NUM_THREADS environment is not set. Defaulting to 1 thread. (src/comm.cpp:99)
  using 1 OpenMP thread(s) per MPI task
# LAMMPS script for continuing NVT simulation

atom_modify map yes
newton      on

read_restart nvt_prod.restart.880000
Reading restart file ...
  restart file = 4 Feb 2025, LAMMPS = 4 Feb 2025
  restoring atom style full from restart
  orthogonal box = (0 0 0) to (153.62298 147.82378 151.07317)
  16 by 8 by 8 MPI processor grid
  pair style symmetrix/mace stores no restart info
  11640 atoms
Finding 1-2 1-3 1-4 neighbors ...
  special bond factors lj:    0        0        0       
  special bond factors coul:  0        0        0       
     0 = max # of 1-2 neighbors
     0 = max # of 1-3 neighbors
     0 = max # of 1-4 neighbors
     1 = max # of special neighbors
  special bonds CPU = 3.575 seconds
  read_restart CPU = 3.714 seconds

pair_style  symmetrix/mace
pair_coeff  * * ../../../00-common/models/ch2o-dens-inv_swa-1-6-8.json C H O
Loading MACE model from '../../../00-common/models/ch2o-dens-inv_swa-1-6-8.json' ... success
  mapping LAMMPS type 1 (C) to MACE type 1
  mapping LAMMPS type 2 (H) to MACE type 0
  mapping LAMMPS type 3 (O) to MACE type 2

group graphene type 1
8640 atoms in group graphene
group H2O type 2 3
3000 atoms in group H2O

thermo 1000

######### NVT production for 80 ps #############

dump DUMP1 all atom 100 nvt_prod_11.lammpstrj
timestep 0.001
fix NVT1 graphene nvt temp 300 300 0.1
Resetting global fix info from restart file:
  fix style: nvt, fix ID: NVT1
fix NVT2 H2O nvt temp 300 300 0.1
Resetting global fix info from restart file:
  fix style: nvt, fix ID: NVT2
run 80000
All restart file global fix info was re-assigned
Neighbor list info ...
  update: every = 1 steps, delay = 0 steps, check = yes
  max neighbors/atom: 2000, page size: 100000
  master list distance cutoff = 8
  ghost atom cutoff = 8
  binsize = 4, bins = 39 37 38
  1 neighbor lists, perpetual/occasional/extra = 1 0 0
  (1) pair symmetrix/mace, perpetual
      attributes: full, newton on
      pair build: full/bin
      stencil: full/bin/3d
      bin: standard
Per MPI rank memory allocation (min/avg/max) = 5.921 | 6.199 | 8.156 Mbytes
   Step          Temp          E_pair         E_mol          TotEng         Press     
    880000   300.86591     -1809933.6      0             -1809481        78.251776    
    881000   301.14446     -1809926.9      0             -1809473.9      33.527348    
    882000   304.82298     -1809922.3      0             -1809463.7     -2.4178373    
    883000   297.88522     -1809923.7      0             -1809475.6      104.81649    
    884000   299.20962     -1809924.4      0             -1809474.3      121.79112    
    885000   297.58672     -1809916.7      0             -1809469        81.380958    
    886000   300.98804     -1809928.6      0             -1809475.8      90.023745    
    887000   297.39096     -1809925.4      0             -1809478        101.84347    
    888000   295.39495     -1809917.4      0             -1809473        109.5009     
    889000   299.41254     -1809926.3      0             -1809475.9      62.497211    
    890000   296.53912     -1809926.9      0             -1809480.8      30.605624    
    891000   301.37501     -1809924.6      0             -1809471.2     -6.2096057    
    892000   299.18936     -1809923.5      0             -1809473.4      70.24369     
    893000   296.52923     -1809924.7      0             -1809478.6      121.36793    
    894000   301.77823     -1809920.5      0             -1809466.5      89.24734     
    895000   301.7928      -1809919.3      0             -1809465.2      100.17078    
    896000   300.63063     -1809923.1      0             -1809470.8      59.102806    
    897000   299.66762     -1809926.4      0             -1809475.5      76.581639    
    898000   297.53122     -1809920.1      0             -1809472.5      39.964385    
    899000   301.65323     -1809918.7      0             -1809464.9      77.589154    
    900000   298.73407     -1809924.9      0             -1809475.5      44.90432     
    901000   304.86015     -1809917.6      0             -1809458.9      86.085335    
    902000   303.23777     -1809924        0             -1809467.8      60.478773    
    903000   299.10758     -1809927.9      0             -1809477.9      93.148536    
    904000   299.85937     -1809927.5      0             -1809476.4      82.892881    
    905000   302.35265     -1809921.1      0             -1809466.2      61.413845    
    906000   299.79013     -1809922.2      0             -1809471.2      12.54501     
    907000   295.99169     -1809922.6      0             -1809477.2      49.243079    
    908000   295.05199     -1809914.9      0             -1809471        58.737801    
    909000   299.09092     -1809921.1      0             -1809471.2      82.697805    
    910000   300.69733     -1809920.1      0             -1809467.7      94.783407    
    911000   299.4574      -1809920.2      0             -1809469.7      36.536081    
    912000   298.75607     -1809921.8      0             -1809472.4      86.975016    
    913000   302.83161     -1809923.6      0             -1809468        78.662778    
    914000   300.18112     -1809926.1      0             -1809474.4      60.048103    
    915000   298.3284      -1809918.2      0             -1809469.3      90.876885    
    916000   298.74827     -1809923.1      0             -1809473.6      37.026707    
    917000   301.18325     -1809920.6      0             -1809467.5      107.75426    
    918000   298.06507     -1809921.6      0             -1809473.2      113.68525    
    919000   301.46613     -1809923.4      0             -1809469.8      77.265302    
    920000   300.78291     -1809917.4      0             -1809464.9      58.029087    
    921000   298.15973     -1809922.6      0             -1809474        39.037814    
    922000   301.60375     -1809920.2      0             -1809466.4      68.142948    
    923000   299.2637      -1809924.6      0             -1809474.4      84.665026    
    924000   300.05527     -1809919.7      0             -1809468.2      151.57094    
    925000   304.1555      -1809919.4      0             -1809461.8      108.83178    
    926000   303.46756     -1809923.3      0             -1809466.7      31.033269    
    927000   299.69315     -1809925.2      0             -1809474.3      66.655869    
    928000   297.05176     -1809919.9      0             -1809473        76.801337    
    929000   300.82307     -1809919.6      0             -1809467        102.60923    
    930000   298.02013     -1809926.7      0             -1809478.3      70.78134     
    931000   303.015       -1809923.7      0             -1809467.8      77.650032    
    932000   299.23568     -1809921.1      0             -1809470.9      88.562142    
    933000   301.0493      -1809925.2      0             -1809472.2      67.206706    
    934000   299.45094     -1809925.1      0             -1809474.6      57.291224    
    935000   298.71203     -1809916.4      0             -1809467        49.365243    
    936000   301.57366     -1809919.6      0             -1809465.9      55.077663    
    937000   301.34285     -1809925.4      0             -1809472        57.582088    
    938000   300.06211     -1809922.7      0             -1809471.3      59.101559    
    939000   302.03319     -1809924.7      0             -1809470.3      76.625312    
    940000   298.36054     -1809920.1      0             -1809471.2      76.310833    
    941000   296.52996     -1809921.7      0             -1809475.6      93.024944    
    942000   300.19142     -1809918.2      0             -1809466.6      80.124018    
    943000   303.17124     -1809922.1      0             -1809466        78.99421     
    944000   298.18105     -1809920.8      0             -1809472.2      120.75348    
    945000   297.68987     -1809925        0             -1809477.1      112.60546    
    946000   300.69494     -1809920.9      0             -1809468.6      51.531799    
    947000   301.66309     -1809917.9      0             -1809464.1      53.098691    
    948000   296.8164      -1809923.3      0             -1809476.8      46.63418     
    949000   302.25186     -1809918.5      0             -1809463.8      55.909125    
    950000   296.23221     -1809921.4      0             -1809475.7      76.834882    
    951000   299.24575     -1809925.4      0             -1809475.2      94.816753    
    952000   301.1262      -1809920.5      0             -1809467.5      114.73535    
    953000   297.59626     -1809924.3      0             -1809476.6      84.375392    
    954000   298.56097     -1809926.7      0             -1809477.5      94.296528    
    955000   297.3765      -1809922.7      0             -1809475.3      60.586314    
    956000   295.60174     -1809926.1      0             -1809481.4      76.83075     
    957000   303.66241     -1809920.9      0             -1809464.1      76.311349    
    958000   300.22203     -1809922.3      0             -1809470.7      54.796871    
    959000   300.30037     -1809920.5      0             -1809468.7      62.53012     
    960000   297.79103     -1809923.7      0             -1809475.7      64.127925    
Loop time of 55854.4 on 1024 procs for 80000 steps with 11640 atoms

Performance: 0.124 ns/day, 193.939 hours/ns, 1.432 timesteps/s, 16.672 katom-step/s
100.0% CPU use with 1024 MPI tasks x 1 OpenMP threads

MPI task timing breakdown:
Section |  min time  |  avg time  |  max time  |%varavg| %total
---------------------------------------------------------------
Pair    | 1428.9     | 5479.7     | 16057      |4992.4 |  9.81
Bond    | 0.0051351  | 0.0080229  | 0.01642    |   1.7 |  0.00
Neigh   | 0.063947   | 0.14       | 0.76964    |  38.0 |  0.00
Comm    | 36.263     | 1866.9     | 7495       |2969.6 |  3.34
Output  | 0.63267    | 4.5306     | 8.5296     | 109.0 |  0.01
Modify  | 37519      | 48497      | 54328      |2002.6 | 86.83
Other   |            | 6.279      |            |       |  0.01

Nlocal:        11.3672 ave         287 max           0 min
Histogram: 870 38 94 6 8 2 1 1 2 2
Nghost:        99.9014 ave        1526 max           0 min
Histogram: 763 104 114 15 7 8 6 3 1 3
Neighs:              0 ave           0 max           0 min
Histogram: 1024 0 0 0 0 0 0 0 0 0
FullNghs:       1224.6 ave       54775 max           0 min
Histogram: 972 29 6 8 3 0 1 2 2 1

Total # of neighbors = 1253990
Ave neighs/atom = 107.7311
Ave special neighs/atom = 0
Neighbor list builds = 3663
Dangerous builds = 0

write_restart nvt_prod.restart.*
System init for write_restart ...
write_data nvt_prod_final.lammps-data
System init for write_data ...

Total wall time: 15:31:16
