LAMMPS data file via write_data, version 4 Feb 2025, timestep = 960000, units = metal

11640 atoms
3 atom types

0 153.62297999999998 xlo xhi
0 147.8237814278542 ylo yhi
0 151.07316997686289 zlo zhi

Masses

1 12.01099999691024
2 1.007999999740698
3 15.99899999588435

Atoms # full

6946 0 1 0 5.683527570852419 3.2447482850610925 72.70276890071085 8 1 15
6942 0 1 0 5.630517825018999 0.7864819169637608 72.58048864263867 8 1 15
6945 0 1 0 4.268254776626444 3.2368499331922025 72.81233127590933 8 1 15
6941 0 1 0 4.212703471053448 0.7637400402250615 72.75957084501455 8 1 15
6708 0 1 0 3.545559684121197 1.9965666516863483 72.843112919506 8 1 15
6712 0 1 0 3.551888072737856 4.444944428764268 73.02844566319067 8 1 15
6711 0 1 0 2.1306452806908927 4.413975720494046 73.12550751365215 8 1 15
6707 0 1 0 2.096063090041089 1.9975301031420538 72.91588570293868 8 1 15
6706 0 1 0 1.4104984085266674 3.1878353484870967 73.12106747115968 8 1 15
6702 0 1 0 1.3783661074544786 0.7350137137522234 73.01088855512408 8 1 15
6947 0 1 0 6.350461321634915 1.9630599329529623 72.68059514883089 8 1 15
6951 0 1 0 6.390250981707586 4.419051714798266 72.88114634267998 8 1 15
6952 0 1 0 7.849858862303439 4.448883697953817 72.84243366689209 8 1 15
6948 0 1 0 7.826072709819921 1.954016331851098 72.48587434781611 8 1 15
7181 0 1 0 8.527857272955128 0.7304302602384285 72.32544574936003 8 1 15
7185 0 1 0 8.55060551234763 3.2055510459476513 72.71363192859265 8 1 15
6726 0 1 0 5.770606106510025 15.498360308846943 73.69145767219656 8 0 15
6727 0 1 0 6.468696908933246 14.30274602175814 73.37723097499008 8 0 15
6950 0 1 0 5.7128410215664935 5.670943242038128 73.06669568410564 8 1 15
6954 0 1 0 5.74423604338414 8.142312919765255 73.17873777800104 8 1 15
6949 0 1 0 4.300825093232182 5.677818227726545 73.02072319676674 8 1 15
6716 0 1 0 3.6197241223610646 6.873220253657243 73.15045749056283 8 1 15
6955 0 1 0 6.5140049737204775 6.883726697001966 73.17913296178693 8 1 15
6956 0 1 0 7.910819348098855 6.905036409149091 73.03757635193948 8 1 15
7193 0 1 0 8.618078902224658 8.136479341936289 73.12477737022031 8 1 15
7189 0 1 0 8.570012643756773 5.671559462132206 72.93862001372291 8 1 15
6732 0 1 0 7.849410110766634 16.772843264571794 73.50840703279677 8 0 15
6965 0 1 0 8.5797029668147 15.593958362024962 73.30569610533144 8 0 15
6959 0 1 0 6.499955388141044 9.365002030175441 73.34142911937052 8 1 15
6960 0 1 0 7.919307321109201 9.347837766421618 73.26947629245036 8 1 15
7197 0 1 0 8.611903094863534 10.574391022193263 73.22245282802723 8 1 15
6969 0 1 0 8.577894320526072 18.00175867643715 73.52335158138166 8 0 15
6953 0 1 0 4.287107489515834 8.13873003676741 73.26525911140638 8 1 15
6715 0 1 0 2.1878139147252984 6.8596335681340985 73.27800753380168 8 1 15
6714 0 1 0 1.453039848118657 8.10803591491374 73.47577088804579 8 1 15
6710 0 1 0 1.4180975279361188 5.64372519780556 73.1970137024899 8 1 15
6718 0 1 0 1.5514439113181047 10.600610791086046 73.7631174818406 8 1 15
6482 0 1 0 1.493673458814656 13.06507158167557 73.99840248926989 8 0 15
6957 0 1 0 4.295460308691745 10.587102023742617 73.48862033341052 8 1 15
6720 0 1 0 3.6122251857684584 9.359468804363091 73.38718734671876 8 1 15
6484 0 1 0 3.6174948048636706 11.82722264675526 73.57763974639752 8 0 15
6958 0 1 0 5.715818427785611 10.583792170640265 73.35348799046353 8 1 15
6722 0 1 0 5.716331144842782 13.054854702265262 73.34324896367185 8 0 15
6721 0 1 0 4.332445887475446 13.091032172217085 73.50490448302742 8 0 15
6719 0 1 0 2.2127000000268753 9.348618197807543 73.54142944664082 8 1 15
6483 0 1 0 2.2481626935910906 11.797976664035756 73.83625995237377 8 0 15
6723 0 1 0 6.451166105588899 11.811447015417722 73.26748931084428 8 0 15
6961 0 1 0 8.6019753578007 13.073240727138796 73.17558855994956 8 0 15
6724 0 1 0 7.8927948842779285 11.79920312641942 73.23051419431222 8 0 15
6728 0 1 0 7.927188687845941 14.321001289646999 73.35186571545749 8 0 15
6486 0 1 0 1.5484636653439439 15.514169103065566 74.42972832782188 8 0 15
6488 0 1 0 3.6596368480161834 14.324148694463645 73.748409959531 8 0 15
6492 0 1 0 3.647884448138634 16.75615512405342 74.27504698402598 8 0 15
6729 0 1 0 4.375156270652243 17.97036959667402 74.43089319426456 8 0 15
6725 0 1 0 4.347257367341334 15.51959549417961 73.90425868742287 8 0 15
6491 0 1 0 2.279503635439122 16.733790280862276 74.48480751870513 8 0 15
6487 0 1 0 2.2060421324194732 14.300695054949616 73.97970045795327 8 0 15
6490 0 1 0 1.6096117567976316 17.93510872600731 74.84455724949078 8 0 15
6730 0 1 0 5.7751728729284535 17.989643099062157 74.03135554893309 8 0 15
6731 0 1 0 6.4571596790711645 16.78156046666609 73.75587669204225 8 0 15
6489 0 1 0 0.14657528752240295 17.95347125180511 75.00239982656417 8 0 15
6485 0 1 0 0.12685652263452848 15.473721337960455 74.64644819632055 8 0 15
6717 0 1 0 0.06980700487981026 10.580157972839194 73.98563351484637 8 1 15
6481 0 1 0 0.07481225724897884 12.988825076336868 74.29159833140535 8 0 15
6713 0 1 0 0.05582512583299619 8.110120811489077 73.65331246357759 8 1 15
6709 0 1 0 0.014786472886904226 5.664505284314628 73.34940850627879 8 1 15
6737 0 1 0 4.432223159093622 22.865902325825562 75.03233938770924 8 0 15
6733 0 1 0 4.441993165102215 20.415120800967035 74.72719068649334 8 0 15
6500 0 1 0 3.709053330967879 21.593537622119108 74.99553847194642 8 0 15
6496 0 1 0 3.712245690321446 19.189948219405025 74.71588237027028 8 0 15
6499 0 1 0 2.328726601687092 21.614047574308405 75.26124787651672 8 0 15
6495 0 1 0 2.3181601131972096 19.17077174409616 74.91407236110696 8 0 15
6746 0 1 0 5.888284258420365 27.769785075384558 75.504874424241 8 0 15
6494 0 1 0 1.5887152382631378 20.36929482448938 75.19702082852614 8 0 15
6735 0 1 0 6.492956159902112 19.179294195612766 74.05827036645391 8 0 15
6739 0 1 0 6.595765933581127 21.619841002370215 74.49207161620534 8 0 15
6738 0 1 0 5.905197657805966 22.833414672669416 74.83177972066385 8 0 15
6734 0 1 0 5.835750384875756 20.388429278936073 74.39087103463775 8 0 15
6736 0 1 0 7.907951150817949 19.256987299149948 73.91588323750769 8 0 15
6977 0 1 0 8.767009151916287 22.922308456752866 74.5504518189983 8 0 15
6740 0 1 0 7.999183760477833 21.67893517343102 74.40914104357317 8 0 15
6973 0 1 0 8.65399185097561 20.45225702613248 74.1226510238057 8 0 15
6508 0 1 0 3.7474495922634055 26.567287055238957 75.50786885894502 8 0 15
6493 0 1 0 0.2048837706901346 20.371240328641612 75.39513298782398 8 0 15
6741 0 1 0 4.498734131445917 25.329131399955514 75.31729391860465 8 0 15
6504 0 1 0 3.746498532786962 24.137248875858372 75.23137011515303 8 0 15
6985 0 1 0 8.806396783021805 27.790250407247648 75.35971499297203 8 0 15
6989 0 1 0 8.750263421338758 30.287121936006283 75.50046171859346 8 0 15
6748 0 1 0 8.103599097849838 26.577266477962425 75.2604767360468 8 0 15
6744 0 1 0 8.093803477952482 24.145424072696873 74.86942622753962 8 0 15
6747 0 1 0 6.653917875831924 26.55184153637943 75.25336757052516 8 0 15
6743 0 1 0 6.630535700301764 24.103658452174997 74.91709970434479 8 0 15
6742 0 1 0 5.911374356891437 25.333550363863193 75.14526531686431 8 0 15
6981 0 1 0 8.773032719651194 25.323498284518614 75.08251149645193 8 0 15
6993 0 1 0 8.770181379387825 32.75974567081293 75.50000525414967 8 0 15
6510 0 1 0 1.694676956279743 30.285088506535775 76.2827231835395 8 0 15
6514 0 1 0 1.7051474577690657 32.77378733657692 76.49050696338028 8 0 15
6519 0 1 0 2.4353998452020145 34.016859007122726 76.47881119711363 8 0 15
6515 0 1 0 2.404951203499847 31.478898030108738 76.41599050509879 8 0 15
6518 0 1 0 1.6760783955752 35.18446348930338 76.72137322169952 8 0 15
6523 0 1 0 2.367279393853905 36.424302613670655 76.5329593895213 8 0 15
6516 0 1 0 3.8272848925817553 31.43889667353816 76.34206323906115 8 0 15
6524 0 1 0 3.787136391676811 36.41822321034441 76.25708660604226 8 0 15
6753 0 1 0 4.577527351203579 32.673667510207935 76.21824482420347 8 0 15
6520 0 1 0 3.838806781465205 33.909251807149246 76.30080389023306 8 0 15
6757 0 1 0 4.537942867437161 35.181329892519685 76.14144650801684 8 0 15
6754 0 1 0 5.975349106560947 32.71839942401542 75.87457116493361 8 0 15
6759 0 1 0 6.665623988958677 33.97518795143141 75.71732081134618 8 0 15
6758 0 1 0 5.92964353840381 35.19826265791269 75.8719064687471 8 0 15
6763 0 1 0 6.6493626871982 36.43127129748939 75.74272759372786 8 0 15
6760 0 1 0 8.105851105110775 34.01002301257431 75.57841632882311 8 0 15
6506 0 1 0 1.6350448441179177 27.789687039429474 75.95790561069572 8 0 15
6511 0 1 0 2.3360812714046006 29.006434671710778 76.03090820357743 8 0 15
6997 0 1 0 8.801979619134707 35.205209445448865 75.56689394438112 8 0 15
6764 0 1 0 8.105810009904486 36.4181233535294 75.67089518106842 8 0 15
6756 0 1 0 8.065174363537219 31.51530964357062 75.58772959993522 8 0 15
6502 0 1 0 1.6352278867446495 25.27981362941717 75.77724755005102 8 0 15
6755 0 1 0 6.685102100684518 31.462788181757304 75.84822634128989 8 0 15
6749 0 1 0 4.489540514861059 30.216636360676308 76.06740514438353 8 0 15
6512 0 1 0 3.7551532541741235 28.997917249578204 75.8678762226826 8 0 15
6513 0 1 0 0.2940761629408245 32.72797769001101 76.60899674756881 8 0 15
6750 0 1 0 5.951421294113579 30.231015258357242 75.8796815110029 8 0 15
6509 0 1 0 0.27137874674327284 30.27771779907585 76.36675633502207 8 0 15
6517 0 1 0 0.2811000707994823 35.18011366644901 76.84542606671026 8 0 15
6505 0 1 0 0.20317920739400652 27.80902692943698 76.18548656044669 8 0 15
6507 0 1 0 2.3380116019419046 26.508585778348504 75.75971346666267 8 0 15
6745 0 1 0 4.431779534564508 27.811415618615374 75.59683600785611 8 0 15
6751 0 1 0 6.653405894389583 29.001806635011427 75.64903730424295 8 0 15
6501 0 1 0 0.22867348963103512 25.330984316007815 76.031046380655 8 0 15
6497 0 1 0 0.2360469675707158 22.79931209538452 75.85993586195814 8 0 15
6498 0 1 0 1.6833553611075807 22.82426957632093 75.5715832449119 8 0 15
6752 0 1 0 8.073432803126224 29.00256306273514 75.56273494077288 8 0 15
6503 0 1 0 2.3312310461421237 24.065568104246235 75.5425139584571 8 0 15
6784 0 1 0 8.127176447304128 48.756242106213975 75.52182461179956 8 0 15
7021 0 1 0 8.836390028544692 49.995029828661366 75.53658112473245 8 0 15
6522 0 1 0 1.7193191511581547 37.70433486714663 76.62064397504324 8 0 15
6761 0 1 0 4.5569199116557515 37.64099916055572 76.13472108759876 8 0 15
6528 0 1 0 3.833740088813713 38.90871054155117 76.25688495166665 8 0 15
6762 0 1 0 5.932123584989068 37.68710586629212 75.88348990735723 8 0 15
6769 0 1 0 4.576849667432118 42.6392645273014 76.05473610798849 8 0 15
6766 0 1 0 6.005797941670586 40.10418495088822 75.85809040115039 8 0 15
6765 0 1 0 4.570011926798382 40.1394113755994 76.13933658706532 8 0 15
6532 0 1 0 3.9013741591235673 41.3755015856478 76.22125654495714 8 0 15
6527 0 1 0 2.460074497069905 38.91186301122959 76.46254866526456 8 0 15
6526 0 1 0 1.731753698999086 40.15128206561025 76.48139767252954 8 0 15
6531 0 1 0 2.4909004502364605 41.39494786912301 76.33954531432737 8 0 15
6767 0 1 0 6.669021841266499 38.8735113392069 75.77413403446538 8 0 15
6530 0 1 0 1.748295135095305 42.58087848957588 76.33801688524399 8 0 15
6773 0 1 0 4.559719516216812 45.04795799032086 75.88622849792309 8 0 15
6536 0 1 0 3.8493256729073346 43.88952013789871 76.05527926994027 8 0 15
6535 0 1 0 2.4437824418815626 43.82848147434116 76.26988884943131 8 0 15
6782 0 1 0 5.973261375147583 49.91994551309663 75.79974152453688 8 0 15
6542 0 1 0 1.7166355257724328 50.01545137511905 76.16021861515134 8 0 15
6537 0 1 0 0.1950881220309009 47.525807137276516 76.1844033308757 8 0 15
6548 0 1 0 3.841142788744834 51.202474259543536 76.09993967819453 8 0 15
6776 0 1 0 8.157994232052049 43.76285226675973 75.88731092564248 8 0 15
6521 0 1 0 0.30160046028400594 37.67101883948926 76.74821690369743 8 0 15
6549 0 1 0 0.3562376379699737 54.909354213264635 76.22652447833656 8 0 15
6539 0 1 0 2.4316113082430886 46.307765723114876 75.97056681301937 8 0 15
6540 0 1 0 3.8226328561789145 46.29993091178584 75.85915456356551 8 0 15
6779 0 1 0 6.683258421932511 46.23249129084576 75.66755329059076 8 0 15
6781 0 1 0 4.53451462357887 49.987391397502336 75.96585967513447 8 0 15
6778 0 1 0 5.966407013199428 47.499335226571496 75.63907284898107 8 0 15
6783 0 1 0 6.713570594959865 48.77304618728049 75.64761514342469 8 0 15
6533 0 1 0 0.30382231695181366 45.07376281946695 76.45738857580226 8 0 15
6534 0 1 0 1.7518578093327202 45.10346244715432 76.24469948510801 8 0 15
6774 0 1 0 5.972018895835988 44.99945406645552 75.71245005198806 8 0 15
6768 0 1 0 8.147165659380544 38.86823410696658 75.67739007968156 8 0 15
6543 0 1 0 2.399604867063387 48.7449499243405 76.0745115295077 8 0 15
6538 0 1 0 1.6811964666648558 47.54541594514167 76.06620452484007 8 0 15
6777 0 1 0 4.543510965296342 47.55179207584697 75.83974883250936 8 0 15
7001 0 1 0 8.815495025353766 37.66224678308778 75.63974091351349 8 0 15
7005 0 1 0 8.818273682169885 40.13880368482205 75.6218331419732 8 0 15
6550 0 1 0 1.757571091198104 54.9230933687218 76.17084717734501 8 0 15
6787 0 1 0 6.687217733898266 51.16144839717097 75.7533665943323 8 0 15
6551 0 1 0 2.456398587563884 53.68430049220868 76.21833649645987 8 0 15
6525 0 1 0 0.27692729502338637 40.1091712776107 76.60010061313946 8 0 15
6771 0 1 0 6.693035041101183 41.31252077285342 75.70416593538555 8 0 15
6552 0 1 0 3.888388590026551 53.68351616673465 76.19567325431044 8 0 15
6541 0 1 0 0.3351771296981433 50.02059058200724 76.2613041738588 8 0 15
6529 0 1 0 0.3320163302591047 42.5816586870931 76.49392362834237 8 0 15
6772 0 1 0 8.133673068968521 41.31764887271185 75.68443972769933 8 0 15
6546 0 1 0 1.7564741835003095 52.42215445162619 76.29758785174826 8 0 15
6788 0 1 0 8.171017799705185 51.21513017659684 75.59216927223852 8 0 15
6785 0 1 0 4.570392472506794 52.43596274192231 76.08314996233763 8 0 15
6770 0 1 0 5.9774041660142085 42.575479004783226 75.81216841171104 8 0 15
6547 0 1 0 2.44620761203131 51.23166919207895 76.12456878884466 8 0 15
6775 0 1 0 6.710811286651324 43.79181251925407 75.81061144387164 8 0 15
6545 0 1 0 0.3089442455037297 52.41695838954871 76.32674453590052 8 0 15
6789 0 1 0 4.5554805183680775 54.9061906459045 76.0128687097201 8 0 15
6780 0 1 0 8.084803858644408 46.27082753047429 75.73322853955233 8 0 15
7017 0 1 0 8.810805357459634 47.50101822025877 75.56238632394343 8 0 15
6791 0 1 0 6.681824921467606 53.64519815515406 75.81714839389389 8 0 15
6792 0 1 0 8.134831355312372 53.69630094721438 75.757172164341 8 0 15
6786 0 1 0 5.990779632875817 52.40452594992284 75.85602348347669 8 0 15
6790 0 1 0 5.999781143936839 54.89861065384233 75.90536561761606 8 0 15
6544 0 1 0 3.8337731399995585 48.73905057515277 75.86985796427251 8 0 15
7013 0 1 0 8.870861003065365 45.04748794717804 75.81311658979538 8 0 15
7009 0 1 0 8.891723598944882 42.577147704955074 75.80669434284425 8 0 15
7029 0 1 0 8.88899192062008 54.90829782489874 75.79880419785967 8 0 15
7025 0 1 0 8.86237922849427 52.45829035177439 75.54725382726389 8 0 15
6818 0 1 0 6.016415933305065 72.22075266288677 75.1885855576984 8 0 15
6813 0 1 0 4.513905473329982 69.7593094431566 75.30510050102554 8 0 15
6819 0 1 0 6.7233417042214345 70.9876441198598 75.24702427586188 8 0 15
6576 0 1 0 3.843896408867185 68.51073813741642 75.35535565021296 8 0 15
6577 0 1 0 0.19188818061093088 72.17131879314012 74.95760415726738 8 0 15
6573 0 1 0 0.26947818605518237 69.76888991336402 75.3423652166452 8 0 15
6823 0 1 0 6.636012194916581 73.47618779885482 75.16543617728962 8 0 15
6583 0 1 0 2.3603000238046157 73.3977215451623 75.01304093716672 8 0 15
6817 0 1 0 4.523976028877708 72.18954602627831 75.1196903194717 8 0 15
6580 0 1 0 3.8124433596456804 70.95963858400144 75.17301588499313 8 0 15
6584 0 1 0 3.8048414987832135 73.39964764260478 75.05786377304186 8 0 15
6815 0 1 0 6.709507301721513 68.52709079824453 75.31001140800356 8 0 15
6578 0 1 0 1.654849162661931 72.16592558420905 74.9872077401445 8 0 15
6811 0 1 0 6.707987033186331 66.04742540937252 75.49669155049844 8 0 15
6574 0 1 0 1.658483884532777 69.74683862283055 75.27976779841255 8 0 15
7045 0 1 0 8.860698359765555 64.78913615027716 75.43055050170912 8 0 15
7057 0 1 0 8.79636287689633 72.2206347840419 75.17732714340472 8 0 15
6814 0 1 0 5.974860332303971 69.74759474681758 75.34788632744178 8 0 15
7053 0 1 0 8.877185365912583 69.77613326257 75.13292176407666 8 0 15
6806 0 1 0 6.011169675702675 64.84151192947816 75.52656674162311 8 0 15
6812 0 1 0 8.12899025976502 66.03558664320296 75.44667249964334 8 0 15
6824 0 1 0 8.062959509580788 73.44474846076218 75.15223237947718 8 0 15
6810 0 1 0 6.0000816069815235 67.28231584415063 75.4146374510503 8 0 15
6579 0 1 0 2.360025105933777 70.95582469075187 75.10113796869771 8 0 15
6816 0 1 0 8.142985782870923 68.50964810096126 75.23467116555719 8 0 15
6575 0 1 0 2.4093278419549287 68.52006894951928 75.40363359398246 8 0 15
6807 0 1 0 6.715669607975704 63.54370545399158 75.50532068534969 8 0 15
6572 0 1 0 3.836534630035477 66.04804778007679 75.49157693357462 8 0 15
6571 0 1 0 2.377405255198893 66.03478126318088 75.50093045121817 8 0 15
6809 0 1 0 4.571318287459949 67.31432833831812 75.40548822160709 8 0 15
6820 0 1 0 8.142738237142344 70.9561033087915 75.17819596959548 8 0 15
7049 0 1 0 8.862124263810433 67.29259592254623 75.31865564653748 8 0 15
6569 0 1 0 0.29196598856547573 67.29103335581945 75.53493118656088 8 0 15
6553 0 1 0 0.33255375348159166 57.390844599850936 76.19419472844079 8 0 15
6557 0 1 0 0.3212326243170579 59.92712517766968 76.02694939376353 8 0 15
6555 0 1 0 2.4306521348298946 56.194962338802874 76.15613064568936 8 0 15
6554 0 1 0 1.743034990749773 57.428713222433224 76.02205419479223 8 0 15
6556 0 1 0 3.8412636569759093 56.18588607826478 75.9911746014441 8 0 15
6559 0 1 0 2.4564425148260027 58.631213411385346 76.01401482469875 8 0 15
6560 0 1 0 3.8431598303390233 58.672491353493754 76.0471328699274 8 0 15
6558 0 1 0 1.7423045470745533 59.89123026628654 76.06999365961063 8 0 15
6793 0 1 0 4.582181142848233 57.41415084396679 75.96052316728117 8 0 15
6561 0 1 0 0.3254100322618351 62.35693780730364 75.98689713953826 8 0 15
6563 0 1 0 2.465657828229926 61.125024254867135 75.91803071451591 8 0 15
6797 0 1 0 4.59022951896743 59.887181859808074 75.99779499501072 8 0 15
6794 0 1 0 6.036666121553036 57.35761835137688 76.02179029466038 8 0 15
6795 0 1 0 6.725689580788773 56.130992784868326 75.96202606340205 8 0 15
6799 0 1 0 6.765949346983547 58.645112372088846 75.99128874256407 8 0 15
6565 0 1 0 0.32415867377027946 64.77028259326994 75.793805161809 8 0 15
6798 0 1 0 5.997697281297532 59.88444731966469 75.9653761851811 8 0 15
6796 0 1 0 8.126053566299925 56.15964098798065 75.93170811527288 8 0 15
6562 0 1 0 1.7631664433782277 62.36166554343417 75.86426863761022 8 0 15
7037 0 1 0 8.874033391695429 59.87018587376514 75.82820056373818 8 0 15
6564 0 1 0 3.897454051934917 61.139980023497145 75.83275398570733 8 0 15
7033 0 1 0 8.851272383893384 57.35712627644083 75.87815120897841 8 0 15
6567 0 1 0 2.4113676566319593 63.6045729641565 75.73150746553144 8 0 15
6568 0 1 0 3.8857541428274054 63.6040999192208 75.6445542573886 8 0 15
6800 0 1 0 8.139070425097872 58.60695309327243 75.86127494197207 8 0 15
6801 0 1 0 4.612639300458756 62.366477917966826 75.70272385650048 8 0 15
6566 0 1 0 1.6976835198645754 64.81349707628716 75.68381382213373 8 0 15
6802 0 1 0 6.027728423799317 62.30975939909725 75.67386018509323 8 0 15
6803 0 1 0 6.755460093036555 61.08154327367411 75.80407772804327 8 0 15
6804 0 1 0 8.16787090140348 61.10101647814438 75.80558548001414 8 0 15
6805 0 1 0 4.549237329060457 64.8371324960331 75.57977590408305 8 0 15
7041 0 1 0 8.87951413113327 62.31612313218116 75.6432723349866 8 0 15
6570 0 1 0 1.7333691004456022 67.28965793940681 75.58286411307004 8 0 15
6808 0 1 0 8.138796969931082 63.570349099773544 75.5416332839348 8 0 15
6607 0 1 0 2.2821892514712734 88.18222077368311 73.70939715074626 8 0 15
7081 0 1 0 8.732272269738116 86.9728356961268 73.83210312963475 8 0 15
6850 0 1 0 5.825798199112645 91.91078189493942 73.586684891259 8 0 15
7085 0 1 0 8.733797608342348 89.46935767365405 73.53361746284827 8 0 15
7089 0 1 0 8.724102867440584 91.91487305817502 73.25987452351426 8 0 15
6845 0 1 0 4.464303788420069 89.42270393925894 73.80793439307774 8 0 15
6846 0 1 0 5.892928445679703 89.43364030333944 73.74221156186276 8 0 15
6848 0 1 0 8.041348340569185 88.18405646584281 73.71669681387581 8 0 15
6852 0 1 0 8.047354118075905 90.71283405195817 73.45370103920054 8 0 15
6821 0 1 0 4.44334296851353 74.67473793611232 75.05153983007281 8 0 15
6825 0 1 0 4.473529792727579 77.1469099385045 74.7688229994583 8 0 15
6592 0 1 0 3.7315350478151625 78.3726099993786 74.59232118213247 8 0 15
6588 0 1 0 3.715019478567379 75.90647234428624 74.91767435698121 8 0 15
6591 0 1 0 2.2896349010852424 78.37014931800391 74.5842543761129 8 0 15
6582 0 1 0 1.6355619548001665 74.67683904659822 74.88536180762104 8 0 15
6587 0 1 0 2.3087866222078515 75.91746088451701 74.77446728289519 8 0 15
6586 0 1 0 1.568259034396455 77.1372529988111 74.6821485451996 8 0 15
6831 0 1 0 6.613700515873746 78.37521089866699 74.73294875597597 8 0 15
6826 0 1 0 5.8974954678345135 77.16987599850546 74.82729179408378 8 0 15
6827 0 1 0 6.608358632177254 75.91276343349892 74.92172738769824 8 0 15
6822 0 1 0 5.853111277759688 74.71198285444522 75.03464957502898 8 0 15
7065 0 1 0 8.766971463748195 77.07716083417857 74.6978686029418 8 0 15
6832 0 1 0 8.043137559153607 78.35134816935529 74.69602719315455 8 0 15
7061 0 1 0 8.756340022344185 74.66703774846637 75.03888907610732 8 0 15
6828 0 1 0 8.023611803377007 75.87524531335349 74.87302197129975 8 0 15
6847 0 1 0 6.602960079181424 88.20550295983644 73.79429324212752 8 0 15
6851 0 1 0 6.568594131559202 90.67554761792451 73.63859523709793 8 0 15
6596 0 1 0 3.7757718872447925 80.85941088249572 74.43241486120509 8 0 15
6829 0 1 0 4.474515484858214 79.57732479706091 74.5117014874155 8 0 15
6833 0 1 0 4.536971829943692 82.06681370647084 74.33858926929308 8 0 15
6595 0 1 0 2.3115139335719386 80.83357215847631 74.36120594728484 8 0 15
6594 0 1 0 1.5922697353490591 82.04430194300467 74.1821551910475 8 0 15
6590 0 1 0 1.60190772499337 79.57462075471173 74.48748229767193 8 0 15
6835 0 1 0 6.6636503661712485 80.85828792380114 74.4585066493462 8 0 15
6834 0 1 0 5.98960436494487 82.06859237606679 74.38553039112247 8 0 15
6830 0 1 0 5.915064919362529 79.59525008995503 74.53022496304789 8 0 15
7069 0 1 0 8.772951039222612 79.61334067175872 74.58795598633958 8 0 15
7073 0 1 0 8.827469987862273 82.05943419792476 74.38330930705476 8 0 15
6836 0 1 0 8.095106061143959 80.84489866212562 74.58154985517008 8 0 15
6611 0 1 0 2.278736237724033 90.71110466669121 73.74794359007002 8 0 15
6612 0 1 0 3.701141692865344 90.68716992133633 73.67251372754558 8 0 15
6602 0 1 0 1.5755597091458078 86.93842969919605 73.66317895053825 8 0 15
6604 0 1 0 3.758196147189688 85.70405015062113 73.9709416807659 8 0 15
6837 0 1 0 4.522399245430775 84.51334061668794 74.17436661501212 8 0 15
6841 0 1 0 4.452770159715411 86.98518926707933 73.87849960635415 8 0 15
6600 0 1 0 3.785429099258968 83.33743435131447 74.19489785338718 8 0 15
6599 0 1 0 2.3356634826181004 83.30660969112826 74.08862662805112 8 0 15
6603 0 1 0 2.3171037279707405 85.71929028347438 73.79918400374721 8 0 15
6598 0 1 0 1.5949992135137858 84.50880984285757 73.89368442326476 8 0 15
6838 0 1 0 5.923262559728436 84.53017012842659 74.13459780980676 8 0 15
6842 0 1 0 5.881518719770947 86.96577865389254 73.96757307986528 8 0 15
6839 0 1 0 6.691495110273817 83.32541560337143 74.28422979643898 8 0 15
6843 0 1 0 6.629010797451133 85.76714673067148 74.09484155211643 8 0 15
6840 0 1 0 8.110818788610914 83.3333569948724 74.34307763364252 8 0 15
7077 0 1 0 8.779369544479772 84.6056069955206 74.30763855649622 8 0 15
6844 0 1 0 8.086341855645971 85.75748747887351 74.08995247886607 8 0 15
6608 0 1 0 3.706159768640532 88.18257059711152 73.76309654076461 8 0 15
6610 0 1 0 1.5652028978497554 91.9288873910295 73.63805323027398 8 0 15
6606 0 1 0 1.5990673770352906 89.44545588144496 73.79598020087067 8 0 15
6849 0 1 0 4.407907597322084 91.87176691470432 73.55971193184472 8 0 15
6593 0 1 0 0.2038908900885944 82.00335571380343 74.01547112235104 8 0 15
6597 0 1 0 0.13791278042739397 84.50567229862868 73.78281888374211 8 0 15
6589 0 1 0 0.11342900710089028 79.58881683177391 74.34103975552561 8 0 15
6581 0 1 0 0.24861422397283003 74.61978535051749 74.77482614638605 8 0 15
6585 0 1 0 0.16400769422321276 77.1380333850815 74.59665910985578 8 0 15
6605 0 1 0 0.16615564499898539 89.47355160626093 73.75595973756843 8 0 15
6601 0 1 0 0.14907218738359276 86.96321364110251 73.73715172014559 8 0 15
6609 0 1 0 0.18207982206721787 91.96072553416428 73.71246785115582 8 0 15
6858 0 1 0 5.854740106359306 96.8244366072272 73.05765318354771 8 0 15
6854 0 1 0 5.840620031405329 94.37405008250452 73.29365563566836 8 0 15
6857 0 1 0 4.440577944439549 96.84313438354054 73.19705128536145 8 0 15
6859 0 1 0 6.570228687801237 95.5791733412021 73.0924075257239 8 0 15
6855 0 1 0 6.548981098308835 93.11619375480436 73.34285899842595 8 0 15
6856 0 1 0 7.940768110958528 93.13364642054559 73.23917741298372 8 0 15
6860 0 1 0 7.96816642857258 95.5966843785499 72.9906779814563 8 0 15
7097 0 1 0 8.690086921011412 96.80820647685701 72.82366366480474 8 0 15
7093 0 1 0 8.669588314877336 94.33730222779684 73.04218993102737 8 0 15
6634 0 1 0 1.4333810076683993 106.64797142403313 72.07937006539532 8 0 15
6630 0 1 0 1.4534537430678003 104.19301190122295 72.2512300478595 8 0 15
6862 0 1 0 5.777904717162879 99.29716999391106 72.72912411351264 8 0 15
6628 0 1 0 3.6329134911007492 100.4972109535535 72.727636772595 8 0 15
6861 0 1 0 4.374537300266979 99.29776592796841 72.90487759238687 8 0 15
6624 0 1 0 3.709563987980514 98.07015678440706 73.24956328568928 8 0 15
6623 0 1 0 2.2539384548792887 98.10944079665046 73.35158492595153 8 0 15
6627 0 1 0 2.247344103414571 100.54553604971035 72.90594653893754 8 0 15
6622 0 1 0 1.5597302048994082 99.35747418234571 73.32599755887875 8 0 15
6863 0 1 0 6.493045622735652 98.06035496429922 72.75088016172586 8 0 15
6867 0 1 0 6.530282909860469 100.55309783591561 72.44876667316814 8 0 15
6864 0 1 0 7.932881643188279 98.04436767190111 72.70728383023668 8 0 15
6868 0 1 0 7.944688016367173 100.52084583054918 72.28337460267895 8 0 15
7101 0 1 0 8.595811674024823 99.28346120594821 72.4380074207614 8 0 15
6614 0 1 0 1.6095815776810822 94.41671143330332 73.5643919152769 8 0 15
6626 0 1 0 1.5050405575136854 101.77311226767381 72.74815835351923 8 0 15
6866 0 1 0 5.80294811313423 101.7071661086166 72.20888850856969 8 0 15
6870 0 1 0 5.7703586508383635 104.16305209180523 71.81687071515933 8 0 15
6865 0 1 0 4.359916338172688 101.71419390281504 72.4485440012004 8 0 15
6869 0 1 0 4.3383289896224975 104.17956822532646 71.99014753336269 8 0 15
6636 0 1 0 3.5808792903215654 105.4266878559114 71.94656530625781 8 0 15
6632 0 1 0 3.653757647353333 102.9221137412724 72.29894997077052 8 0 15
6631 0 1 0 2.184582362952461 102.94871828046054 72.32636926466864 8 0 15
6635 0 1 0 2.161125671709907 105.43617006467443 72.06825483459092 8 0 15
6871 0 1 0 6.481565561633238 102.92003448680445 71.93126331816703 8 0 15
6875 0 1 0 6.435110165681402 105.37733927365669 71.63920534184307 8 0 15
6872 0 1 0 7.9277980758802205 102.90794141393523 71.93393708702125 8 0 15
6876 0 1 0 7.88322616007758 105.35146615026684 71.55229456461532 8 0 15
7105 0 1 0 8.641914460196745 101.67801395166087 71.94429945715288 8 0 15
6618 0 1 0 1.5823135319025727 96.89754269853746 73.58609234865126 8 0 15
7109 0 1 0 8.622607960014925 104.13465324483245 71.69539260670298 8 0 15
6615 0 1 0 2.284072005657212 93.16877871479166 73.543089593001 8 0 15
6638 0 1 0 1.3914192857187535 109.09058021263793 71.86345831219674 8 0 15
6644 0 1 0 3.533564225093406 110.32525984049495 71.56874145107177 8 0 15
6878 0 1 0 5.68990475463739 109.0872274603984 71.52068569381605 8 0 15
6874 0 1 0 5.70018437564038 106.63821141235032 71.59993891137046 8 0 15
6873 0 1 0 4.269334555433569 106.61886170880175 71.71985535056399 8 0 15
6877 0 1 0 4.28095618784574 109.12266946833797 71.58328233903161 8 0 15
6640 0 1 0 3.5585156654004484 107.92833647998718 71.77923174990131 8 0 15
6643 0 1 0 2.101051034487656 110.31815735319366 71.65148515982598 8 0 15
6639 0 1 0 2.152422584604624 107.89690687652363 71.88135812203068 8 0 15
6883 0 1 0 6.416348378394318 110.35366973186972 71.50597811728954 8 0 15
6879 0 1 0 6.395638281830138 107.81687265483843 71.48662370798196 8 0 15
6620 0 1 0 3.7490301465840052 95.61543892477941 73.29953663261956 8 0 15
6619 0 1 0 2.320161797021233 95.60880946145767 73.51768296657566 8 0 15
6884 0 1 0 7.802832411394854 110.38027878240311 71.36059591346039 8 0 15
6880 0 1 0 7.84017722198556 107.86044636414042 71.5080875805143 8 0 15
7113 0 1 0 8.555650576901693 106.61385972889389 71.50281880837233 8 0 15
7117 0 1 0 8.547538415158522 109.12446967167132 71.39891893738331 8 0 15
6616 0 1 0 3.6877186940034403 93.12626567125669 73.57564196401394 8 0 15
6853 0 1 0 4.39534350528127 94.37815259850187 73.34477358635176 8 0 15
6613 0 1 0 0.1457194146145777 94.4101529161494 73.68632431473577 8 0 15
6617 0 1 0 0.17393565522513266 96.85471799351052 73.7613265727322 8 0 15
6621 0 1 0 0.19180870737844724 99.42002074963088 73.55474642300648 8 0 15
6625 0 1 0 0.01028120940126035 101.78141097495622 72.92329147502478 8 0 15
6629 0 1 0 0.015762304049000374 104.20876193094053 72.55959053244061 8 0 15
6637 0 1 0 0.036426630380503866 109.1177652800579 71.99195132053055 8 0 15
6886 0 1 0 5.649104340329211 114.02117530981145 71.50279176173996 8 0 15
6882 0 1 0 5.730145780874201 111.5529950210561 71.53353121941072 8 0 15
6881 0 1 0 4.223330970596008 111.54791758961986 71.5897127937608 8 0 15
6885 0 1 0 4.212463376113776 113.97054069129501 71.41309221277353 8 0 15
6648 0 1 0 3.4864876144845636 112.74181323620469 71.45756830339825 8 0 15
6652 0 1 0 3.484163701233126 115.23363383256216 71.3038134517041 8 0 15
6651 0 1 0 2.0482203499555722 115.24461203281074 71.32188709019849 8 0 15
6647 0 1 0 2.0734076336256884 112.71808904055293 71.43901667647818 8 0 15