LAMMPS data file via write_data, version 4 Feb 2025, timestep = 50000, units = metal

16140 atoms
3 atom types

0 154.00799999999998 xlo xhi
0 148.2 ylo yhi
0 151.07609208607428 zlo zhi

Masses

1 12.01099999691024
2 1.007999999740698
3 15.99899999588435

Atoms # full

7960 0 1 0 3.505006683034274 1.7755873365823707 28.07179963450747 1 0 0
8012 0 1 0 3.47445704220888 4.30099323213971 28.25087234666169 1 0 0
7950 0 1 0 1.3234667464149816 0.6427645674250776 28.187186809666173 1 0 0
7959 0 1 0 2.7604144800906414 0.5889640380420589 28.04362672988212 1 0 0
7941 0 1 0 0.6470862765147394 1.8626394937581197 28.3042124873419 1 0 0
8011 0 1 0 2.7774570888122723 3.052445410825005 28.25771552977209 1 0 0
8002 0 1 0 1.341626355424358 3.0860593990268703 28.2417348441801 1 0 0
8003 0 1 0 0.5794562531215797 4.306046497594799 28.291304443683675 1 0 0
8023 0 1 0 4.90383063783311 4.30258403749217 28.17401767079621 1 0 0
7961 0 1 0 4.899778673684336 1.7998474468014645 28.01109919817653 1 0 0
7980 0 1 0 7.690656016009006 1.8439636986297174 28.125165683293126 1 0 0
7979 0 1 0 7.017258670244933 0.6429712489702817 27.89462269944161 1 0 0
7921 0 1 0 9.088600945528052 1.8652574623638007 28.088618579405495 1 0 0
7970 0 1 0 5.575254945290592 0.5808481400772244 27.81760187735953 1 0 0
8022 0 1 0 5.62028397142588 3.064876209905336 28.12429204864823 1 0 0
8031 0 1 0 7.006954284899898 3.0888637981296303 28.1349285966185 1 0 0
7983 0 1 0 9.10653195783578 4.351493591034032 28.136178938394252 1 0 0
8032 0 1 0 7.724224867741531 4.333910962245683 28.06371247863405 1 0 0
8025 0 1 0 4.87382180933471 6.795791999312079 28.253427960811656 1 0 0
7985 0 1 0 9.173294521399361 6.839238527422028 28.054464830101285 1 0 0
8034 0 1 0 7.7072773042748315 6.855892156140274 28.06536311731528 1 0 0
8035 0 1 0 6.977302162137336 8.055835650412279 28.2516603999872 1 0 0
8024 0 1 0 5.623940049823488 5.549567371319628 28.24877531342633 1 0 0
8033 0 1 0 7.026029485615274 5.58914153171278 28.087232939833253 1 0 0
7987 0 1 0 9.132424662180846 9.303345477319212 28.148371296828614 1 0 0
8036 0 1 0 7.681823693357685 9.328634700883242 28.22809918287187 1 0 0
7989 0 1 0 9.224626905138441 11.798045830432788 28.204704233270746 1 0 0
8037 0 1 0 7.06033936085481 10.579293208522252 28.307023487166337 1 0 0
8038 0 1 0 7.747990436201392 11.803409968741077 28.25001614016796 1 0 0
8043 0 1 0 9.151986976951143 16.74404416537144 28.19742151904077 1 0 0
8040 0 1 0 7.695624588419096 14.278241641520918 28.31771780423541 1 0 0
8091 0 1 0 7.019649390152313 15.514433209690731 28.096335576761874 1 0 0
7981 0 1 0 9.129610851404754 14.278558813954037 28.33375518534824 1 0 0
8084 0 1 0 5.585956765985866 17.96644692239894 28.02047512874211 1 0 0
8093 0 1 0 7.024412387506195 17.960776778651738 27.925432567295747 1 0 0
8092 0 1 0 7.7276735270360914 16.748299973758062 28.066809366037724 1 0 0
8005 0 1 0 0.6978267726073969 6.776016237055294 28.296036887251326 1 0 0
8013 0 1 0 2.7903713610585434 5.527513903976859 28.317536334645542 1 0 0
8004 0 1 0 1.3989402938727509 5.542755810594978 28.37283696184013 1 0 0
8014 0 1 0 3.452662085497371 6.802947756386332 28.28789313401807 1 0 0
8015 0 1 0 2.740272218615507 8.045508497432714 28.28704723475982 1 0 0
8006 0 1 0 1.3275193157843799 8.044330348866092 28.35749964498531 1 0 0
8026 0 1 0 5.602430189735344 8.045387413449134 28.28772681528011 1 0 0
8007 0 1 0 0.6102192332591262 9.249679006294112 28.439226007394506 1 0 0
8010 0 1 0 1.3609625344543705 13.049049585411993 28.236499529221163 1 0 0
8016 0 1 0 3.4839241584348715 9.265773147237034 28.257566993249867 1 0 0
8017 0 1 0 2.7712805068635746 10.503169231355661 28.29596252544721 1 0 0
8018 0 1 0 3.4967620779799686 11.76066439505988 28.274188515633174 1 0 0
8019 0 1 0 2.7972759296347562 12.981424241647728 28.173911936915577 1 0 0
8008 0 1 0 1.3186032877982494 10.508496438065189 28.37663198645375 1 0 0
8009 0 1 0 0.6110128544571528 11.75196373343974 28.362217049710654 1 0 0
8027 0 1 0 4.9313810729638226 9.27905388519294 28.43343196170267 1 0 0
8029 0 1 0 4.931489837564936 11.758514473626262 28.287391319383143 1 0 0
8030 0 1 0 5.5843420255498435 13.0523362401349 28.236454833930367 1 0 0
8028 0 1 0 5.585791355528407 10.56039461030627 28.332729385861295 1 0 0
8039 0 1 0 7.018945959249686 13.039178126973079 28.300390821084854 1 0 0
8071 0 1 0 2.816792141107476 15.491318324788836 27.975803485565336 1 0 0
8072 0 1 0 3.476866123462499 16.71989713984621 27.943417983962686 1 0 0
8073 0 1 0 2.766914807031413 17.94099708959627 28.05159015474852 1 0 0
8064 0 1 0 1.385371679332618 17.970848678322092 27.94655673730798 1 0 0
8062 0 1 0 1.4273340224344606 15.463650015422933 28.025017675042353 1 0 0
8020 0 1 0 3.5284689427126907 14.228288111408844 28.009244408724303 1 0 0
8001 0 1 0 0.6333412498628058 14.207403417106324 28.041258783436394 1 0 0
8063 0 1 0 0.6788190802555216 16.69835620120379 28.030794493538732 1 0 0
8021 0 1 0 4.944220014149119 14.22849399012011 28.01242176983314 1 0 0
8083 0 1 0 4.90206307043085 16.718413608370135 27.95997140013067 1 0 0
8082 0 1 0 5.62059444320915 15.536349817431253 27.957014123411884 1 0 0
8085 0 1 0 4.883458333794597 19.22417249026428 27.926881871708378 1 0 0
8095 0 1 0 6.998464623374038 20.516775517774818 27.75994647432307 1 0 0
8094 0 1 0 7.706391698220412 19.226235305028123 27.82493435498275 1 0 0
8045 0 1 0 9.17014083723388 19.223572630967233 27.96163135533006 1 0 0
8096 0 1 0 7.745015133713241 21.692370613911468 27.68056684865582 1 0 0
8047 0 1 0 9.170824990295698 21.65088504061116 27.797168960806594 1 0 0
8097 0 1 0 7.015688742840258 22.962988314045457 27.586927119063027 1 0 0
8080 0 1 0 3.453303688181426 26.61563252082094 27.629354817311114 1 0 0
8061 0 1 0 0.6078658814193596 26.55190122079036 27.45542063891435 1 0 0
8131 0 1 0 2.695622687764069 27.85057260537877 27.62136388572483 1 0 0
8122 0 1 0 1.3037504431940177 27.766210793337713 27.399919665805598 1 0 0
8049 0 1 0 9.151326648274225 24.109772987836898 27.697943490305313 1 0 0
8099 0 1 0 6.97269933965372 25.435119383611145 27.590893461291774 1 0 0
8098 0 1 0 7.718582816980574 24.218065512895066 27.62520340248477 1 0 0
8041 0 1 0 9.1912033097125 26.61440542013443 27.607658534020764 1 0 0
8100 0 1 0 7.679144770459746 26.654375957306126 27.539706327631833 1 0 0
8090 0 1 0 5.590437260057819 25.402565077509426 27.613221922819893 1 0 0
8081 0 1 0 4.846301443694259 26.633098146018927 27.615884518319454 1 0 0
8142 0 1 0 5.574834773584402 27.904601061895015 27.675743544275438 1 0 0
8132 0 1 0 3.441403598985616 29.10692305558228 27.58970110425342 1 0 0
8124 0 1 0 1.3159264209693664 30.31587764476917 27.43943886808918 1 0 0
8133 0 1 0 2.731359484709035 30.33911491816939 27.537148340159128 1 0 0
8125 0 1 0 0.6390327678596871 31.55288740075774 27.33621711509065 1 0 0
8123 0 1 0 0.5992414296079156 29.06934258309189 27.3782532230821 1 0 0
8134 0 1 0 3.4771895676633453 31.579849483113698 27.522021346796322 1 0 0
8143 0 1 0 4.876915866874456 29.137153663932988 27.709695373302186 1 0 0
8151 0 1 0 7.028875460926279 27.849883752258105 27.528443914053412 1 0 0
8105 0 1 0 9.225490299775396 31.48667842651076 27.36271188528215 1 0 0
8152 0 1 0 7.770142292917468 29.077551441734588 27.47478593837407 1 0 0
8103 0 1 0 9.206149432260588 29.011268272233032 27.529106188462695 1 0 0
8144 0 1 0 5.65063912052274 30.30428876689356 27.517290607076898 1 0 0
8145 0 1 0 4.944526233714219 31.5421470553891 27.598594885287824 1 0 0
8154 0 1 0 7.818900354646966 31.480145259175718 27.281854674247295 1 0 0
8153 0 1 0 7.084217626290219 30.310866999507816 27.408039372957226 1 0 0
8138 0 1 0 3.547429356477367 36.45843741644064 27.260401324797318 1 0 0
8129 0 1 0 0.6171375022457831 36.451158982288135 27.300064125530767 1 0 0
8126 0 1 0 1.3233962402773138 32.78981854213694 27.2117234080778 1 0 0
8128 0 1 0 1.3687311017580774 35.278578652522604 27.297835175295422 1 0 0
8135 0 1 0 2.755953130509838 32.795718760387985 27.39653909349678 1 0 0
8136 0 1 0 3.452912393828284 34.00347889164343 27.36053865896165 1 0 0
8137 0 1 0 2.8083226935179972 35.251640174524695 27.2662911759853 1 0 0
8127 0 1 0 0.633450161556411 34.04185300558522 27.300912776119997 1 0 0
8149 0 1 0 4.935555377761664 36.477792018349845 27.282101574456963 1 0 0
8158 0 1 0 7.725517866139994 36.46778130277317 27.27395293545959 1 0 0
8109 0 1 0 9.203456404997658 36.43027535365198 27.326729053395574 1 0 0
8107 0 1 0 9.212850858289169 33.96767064439397 27.419039569349923 1 0 0
8147 0 1 0 4.8969076422755355 34.0313967473912 27.421114502189585 1 0 0
8148 0 1 0 5.611126286925617 35.24840968477312 27.310047438547276 1 0 0
8156 0 1 0 7.792265126264136 33.99454035773439 27.43128220271362 1 0 0
8146 0 1 0 5.637230974116702 32.76830458697028 27.47802167548375 1 0 0
8157 0 1 0 7.0278512258406485 35.281684960697405 27.32395043958498 1 0 0
8155 0 1 0 7.0789540659674595 32.763739693491914 27.38684201446626 1 0 0
8074 0 1 0 3.50215002248427 19.22414559564194 27.965722480238767 1 0 0
8066 0 1 0 1.3390075433805968 20.382490666559917 27.767654525130947 1 0 0
8075 0 1 0 2.7785335443149695 20.480082725488824 27.799117492191364 1 0 0
8076 0 1 0 3.4751146086567646 21.689248189293206 27.6078108056954 1 0 0
8065 0 1 0 0.6290582550456111 19.168721126117756 27.918093293735424 1 0 0
8067 0 1 0 0.6081833972114786 21.642947126914557 27.71642089500271 1 0 0
8068 0 1 0 1.3358538034181062 22.879258400536788 27.624073841963195 1 0 0
8077 0 1 0 2.7516988253002213 22.92103774993301 27.516560215855755 1 0 0
8087 0 1 0 4.869394650011296 21.725335394248024 27.655733238084572 1 0 0
8086 0 1 0 5.578815706763277 20.487924594082088 27.750692472456187 1 0 0
8088 0 1 0 5.570634156143371 22.926152901117582 27.51761616011347 1 0 0
8069 0 1 0 0.6197452217949867 24.09696515899906 27.494475737842308 1 0 0
8078 0 1 0 3.4376396412178565 24.17898426685256 27.521410194545314 1 0 0
8070 0 1 0 1.317992966593702 25.342288950608452 27.637391085565667 1 0 0
8079 0 1 0 2.7126913807358983 25.379762397697423 27.62810169010317 1 0 0
8089 0 1 0 4.867911798314294 24.15203650615224 27.552619788595884 1 0 0
8191 0 1 0 2.7579355816641975 40.12836602551046 27.572025862560796 1 0 0
8192 0 1 0 3.4397607598760844 41.39853711401392 27.6026573858764 1 0 0
8183 0 1 0 0.674865557681589 41.40225333020941 27.63548943677299 1 0 0
8121 0 1 0 0.6335061232358619 38.93269867075141 27.62102023094927 1 0 0
8130 0 1 0 1.3453722475906018 37.70960885155598 27.364227511559818 1 0 0
8139 0 1 0 2.7901285552246584 37.70103691710942 27.355845920491717 1 0 0
8182 0 1 0 1.376612974314188 40.184693678203594 27.676153482927756 1 0 0
8140 0 1 0 3.5039857001557686 38.91530618277381 27.463760788033294 1 0 0
8203 0 1 0 4.867124240397149 41.423706262622154 27.687017996324272 1 0 0
8202 0 1 0 5.650254839738296 40.18754197085974 27.586361752089392 1 0 0
8163 0 1 0 9.17438573963361 41.4240570029958 27.83576470124592 1 0 0
8212 0 1 0 7.746276642257397 41.45760122962687 27.71963313975642 1 0 0
8101 0 1 0 9.185723281282232 38.93163125728651 27.581584253771755 1 0 0
8159 0 1 0 7.087292872764622 37.71207021408917 27.251508097332188 1 0 0
8160 0 1 0 7.792562042151383 38.97585676457325 27.424426139527956 1 0 0
8211 0 1 0 7.072767131633903 40.20105023335996 27.571880260335902 1 0 0
8141 0 1 0 4.924445225841095 38.925888977880824 27.414997147103122 1 0 0
8150 0 1 0 5.656727254560705 37.70868976356636 27.287465811374393 1 0 0
8184 0 1 0 1.3266921560518052 42.683642092242906 27.620128764521716 1 0 0
8193 0 1 0 2.790384917395758 42.63707053552168 27.622678716005087 1 0 0
8185 0 1 0 0.5807144194531267 43.901403947884845 27.727170692355035 1 0 0
8194 0 1 0 3.4703504949110284 43.86962179468389 27.723813507812903 1 0 0
8186 0 1 0 1.2650292356394892 45.12973136841403 27.71117706451636 1 0 0
8195 0 1 0 2.734453681005059 45.09865438322643 27.802860348745117 1 0 0
8196 0 1 0 3.46331301267351 46.30646146085445 27.97884714154669 1 0 0
8205 0 1 0 4.886856056298723 43.89031692460905 27.87934479208986 1 0 0
8206 0 1 0 5.648453384250886 45.14372006388896 27.895203675143005 1 0 0
8204 0 1 0 5.55437912423794 42.61280971994499 27.7962686766229 1 0 0
8165 0 1 0 9.169058690007953 43.89587381444641 27.82863254538239 1 0 0
8213 0 1 0 6.981483986622242 42.66943523710987 27.82473843764084 1 0 0
8214 0 1 0 7.750391065019128 43.84286480588766 27.82171497695259 1 0 0
8215 0 1 0 7.049969831019123 45.109865396383334 27.83977260722569 1 0 0
8216 0 1 0 7.743814725861886 46.39704365447169 27.893282759603554 1 0 0
8199 0 1 0 2.7886503837497534 50.02540595255693 28.048789632493744 1 0 0
8198 0 1 0 3.482509294965154 48.80297914195726 28.08281325978993 1 0 0
8190 0 1 0 1.3918091622550957 50.02344613903097 28.010594708333016 1 0 0
8189 0 1 0 0.652261501148353 48.78400599679646 27.86585880944071 1 0 0
8188 0 1 0 1.3629704530571796 47.57880525480191 27.8694330590154 1 0 0
8197 0 1 0 2.771424816251229 47.55004925766758 27.98472551613271 1 0 0
8187 0 1 0 0.6192168740687191 46.405619927306496 27.781706617913866 1 0 0
8207 0 1 0 4.9122008610473085 46.37841457815804 27.956711959553502 1 0 0
8219 0 1 0 7.062673696411288 50.0314870392277 28.226639555198066 1 0 0
8169 0 1 0 9.205967773148975 48.83515037202341 28.00605646146487 1 0 0
8218 0 1 0 7.782258870575052 48.82667660638413 27.982255299937403 1 0 0
8209 0 1 0 4.855396555979347 48.826757837812345 28.051249491908592 1 0 0
8210 0 1 0 5.648283238755329 50.02201814197228 28.21391419003088 1 0 0
8208 0 1 0 5.61472932309832 47.59898745114294 27.90935847327475 1 0 0
8217 0 1 0 7.058741673571872 47.618822312307515 27.91821718304139 1 0 0
8167 0 1 0 9.13333425663953 46.374184260508656 27.866273828291312 1 0 0
8200 0 1 0 3.490799179266516 51.25836912396094 28.14696512110171 1 0 0
8252 0 1 0 3.4794841691214202 53.75877562673518 28.35168503437444 1 0 0
8243 0 1 0 0.6983683790217275 53.741767640000965 28.204113228225253 1 0 0
8242 0 1 0 1.375298897240412 52.50953504259129 28.098826941274368 1 0 0
8251 0 1 0 2.8076569598544565 52.51343194520832 28.171600884297032 1 0 0
8244 0 1 0 1.3733985323281026 55.000196506971456 28.284688481942542 1 0 0
8181 0 1 0 0.6268338636489403 51.252934336780044 28.12508737370519 1 0 0
8263 0 1 0 4.955195578502567 53.727078226794916 28.374766551950813 1 0 0
8201 0 1 0 4.934155992593616 51.250343469102724 28.253349997618756 1 0 0
8223 0 1 0 9.228379083608774 53.69484142671961 28.230996149122753 1 0 0
8161 0 1 0 9.252381219382224 51.259134514772164 28.17927487742338 1 0 0
8264 0 1 0 5.658590222970254 54.96455193663668 28.338479683077576 1 0 0
8220 0 1 0 7.822198523145976 51.23610953069278 28.25746800714259 1 0 0
8262 0 1 0 5.639339733620511 52.47354587094026 28.366423923840614 1 0 0
8271 0 1 0 7.077909900706276 52.494671148257666 28.307461819073545 1 0 0
8272 0 1 0 7.791164539586871 53.67162291964239 28.31117150724728 1 0 0
8273 0 1 0 7.057334153278366 54.93054326477247 28.324266053571783 1 0 0
8253 0 1 0 2.7694866172336003 55.01828014326253 28.366554003758896 1 0 0
8257 0 1 0 2.833627723188279 59.904283079450806 28.296182672535625 1 0 0
8248 0 1 0 1.3734857232402724 59.863813095563714 28.24678296620959 1 0 0
8246 0 1 0 1.3812842283467484 57.42091681289222 28.352512337372566 1 0 0
8256 0 1 0 3.4903372473511807 58.6308274021471 28.357007037526156 1 0 0
8245 0 1 0 0.6431500668340244 56.20400929814359 28.34787156655547 1 0 0
8267 0 1 0 4.9233492817609275 58.61901257502086 28.567166834563274 1 0 0
8277 0 1 0 7.075227342546839 59.815033488402015 28.660847745190544 1 0 0
8268 0 1 0 5.669555114615079 59.82336192527646 28.594461533106617 1 0 0
8266 0 1 0 5.595743683623447 57.408569530382074 28.664708001651054 1 0 0
8225 0 1 0 9.231139487420474 56.10614500253148 28.551654609940698 1 0 0
8227 0 1 0 9.203142044844139 58.619553530547606 28.706939012409677 1 0 0
8274 0 1 0 7.812104430616477 56.097373639594245 28.52635479796962 1 0 0
8275 0 1 0 7.033051531203426 57.37202624697368 28.63767349905782 1 0 0
8276 0 1 0 7.7565452443358875 58.575430648658795 28.681764053607328 1 0 0
8250 0 1 0 1.4109917219157893 62.28094617865468 28.52077588376221 1 0 0
8258 0 1 0 3.5557098411534684 61.09716877876863 28.437222707347374 1 0 0
8259 0 1 0 2.817207228483654 62.331060058044685 28.571428994180273 1 0 0
8249 0 1 0 0.6509035899014691 61.10039009850846 28.292381270153474 1 0 0
8260 0 1 0 3.547976895124593 63.53488605943944 28.68159124096038 1 0 0
8311 0 1 0 2.8112382339257262 64.7214825743325 28.674245305630148 1 0 0
8261 0 1 0 4.9826423454142645 63.5567653931864 28.670694353460807 1 0 0
8269 0 1 0 4.964852002491387 61.07585517804378 28.57927221862403 1 0 0
8279 0 1 0 7.121361075065603 62.314406695456206 28.690041584994113 1 0 0
8280 0 1 0 7.721137366614229 63.580580725957674 28.704519021380214 1 0 0
8221 0 1 0 9.183309340193457 63.5773642547883 28.70990242493236 1 0 0
8278 0 1 0 7.781208119783892 61.078456951805094 28.663413741787252 1 0 0
8270 0 1 0 5.707694605244225 62.30630297725574 28.676047586838745 1 0 0
8229 0 1 0 9.218603833144911 61.036476396041444 28.733514313469787 1 0 0
8331 0 1 0 7.062091551567626 64.81898396276254 28.65329994741865 1 0 0
8322 0 1 0 5.664697679949713 64.83640252690542 28.62755521209419 1 0 0
8312 0 1 0 3.4981209500297843 66.04947656968903 28.68375675680369 1 0 0
8325 0 1 0 4.936004968769951 68.52861452519134 28.529604937386473 1 0 0
8323 0 1 0 4.947225617681813 66.09109052592251 28.611882753052537 1 0 0
8332 0 1 0 7.772383222951681 66.0352000326017 28.614821958498712 1 0 0
8283 0 1 0 9.20326122522171 66.10344031798986 28.7188986041932 1 0 0
8324 0 1 0 5.639339826715839 67.3288462766834 28.568459460442224 1 0 0
8333 0 1 0 7.1010056445765 67.28334480720413 28.45552465806701 1 0 0
8285 0 1 0 9.200952145625248 68.50987327991947 28.531789781223203 1 0 0
8334 0 1 0 7.774133950467595 68.54520511877979 28.523093265614577 1 0 0
8318 0 1 0 3.47916416475407 73.39321588497083 28.213940454482053 1 0 0
8308 0 1 0 1.3647091224101433 72.16754114292591 28.13069796071977 1 0 0
8316 0 1 0 3.4413868530686735 70.9906021850527 28.23041329743141 1 0 0
8317 0 1 0 2.746072791893925 72.15929203264518 28.186202433484457 1 0 0
8309 0 1 0 0.6727909746651344 73.41090485063698 28.127443101709087 1 0 0
8329 0 1 0 4.922918061852628 73.44019558048029 28.133060247365155 1 0 0
8287 0 1 0 9.168257487502002 70.97004560816768 28.455704612815087 1 0 0
8327 0 1 0 4.86131823367148 70.98928490872395 28.266972889680268 1 0 0
8328 0 1 0 5.62400957975261 72.19770580205589 28.258149751278772 1 0 0
8337 0 1 0 7.030825331136312 72.20758169086267 28.320342765671537 1 0 0
8336 0 1 0 7.7706413978207385 71.00032646326784 28.446660284094463 1 0 0
8326 0 1 0 5.599839747127855 69.7940470856502 28.360908029628042 1 0 0
8335 0 1 0 7.005495734518365 69.78358125566442 28.431993270736843 1 0 0
8254 0 1 0 3.503127001521537 56.18832957698743 28.425759488293746 1 0 0
8255 0 1 0 2.780075133804767 57.3899961855483 28.3380278209773 1 0 0
8247 0 1 0 0.6585555655512926 58.64614225189684 28.18052044934953 1 0 0
8265 0 1 0 4.904375191456087 56.22214748893047 28.518527682212152 1 0 0
8241 0 1 0 0.6789053706319139 63.50112361479085 28.48855135198144 1 0 0
8302 0 1 0 1.3291342368119312 64.69752692857958 28.637830952879213 1 0 0
8305 0 1 0 0.6561293801898375 68.51194170873802 28.43461872286665 1 0 0
8314 0 1 0 3.4668222233323367 68.49954191713775 28.4496792191028 1 0 0
8303 0 1 0 0.688299297214091 65.96444134601238 28.565838666527213 1 0 0
8304 0 1 0 1.3844507900491567 67.23030639149634 28.555002860286915 1 0 0
8313 0 1 0 2.7598022014582666 67.24968021640015 28.55937211762013 1 0 0
8306 0 1 0 1.3569414796148933 69.71617187355196 28.402967603526836 1 0 0
8315 0 1 0 2.7257047759549464 69.70976745180727 28.31842543011259 1 0 0
8307 0 1 0 0.6334438152104308 70.96826808397104 28.243774075491736 1 0 0
8289 0 1 0 9.202201558009442 73.44974568798771 28.499917307221715 1 0 0
8338 0 1 0 7.779138402962261 73.43376297578654 28.427677499801693 1 0 0
8310 0 1 0 1.3483996675384975 74.61318538304982 28.23814790895988 1 0 0
8319 0 1 0 2.7542820916781197 74.62791205479476 28.19598658019884 1 0 0
8320 0 1 0 3.415847767150577 75.87331578999022 28.261021239225126 1 0 0
8362 0 1 0 1.298291046153912 77.08630112494244 28.249432218920298 1 0 0
8371 0 1 0 2.740376022572338 77.13319791248512 28.367912587370547 1 0 0
8301 0 1 0 0.5888084903870808 75.83737140669002 28.25975055733051 1 0 0
8372 0 1 0 3.491526015402268 78.33380394943177 28.30498142445923 1 0 0
8363 0 1 0 0.5794254267244269 78.31774458990122 28.193086220418316 1 0 0
8321 0 1 0 4.8656629624115615 75.91496775864374 28.314618543452937 1 0 0
8383 0 1 0 4.943957802644567 78.35648720785497 28.292080661573394 1 0 0
8330 0 1 0 5.630281489649384 74.68532558429007 28.264654734564267 1 0 0
8382 0 1 0 5.575995623194859 77.15470761043042 28.32987081510932 1 0 0
8339 0 1 0 7.051027395994363 74.70646605749845 28.372924343947204 1 0 0
8340 0 1 0 7.738540046011524 75.94842264684482 28.453481427037456 1 0 0
8391 0 1 0 7.009210578237987 77.16592042909228 28.43420257320348 1 0 0
8343 0 1 0 9.230946096817632 78.37877612804814 28.434339470291857 1 0 0
8392 0 1 0 7.759281134418359 78.39376417414265 28.39925774457723 1 0 0
8384 0 1 0 5.5856145401734025 79.60947565376412 28.478169554225964 1 0 0
8386 0 1 0 5.641142106537348 82.0480877860886 28.329583549211023 1 0 0
8345 0 1 0 9.198045075372612 80.86041445516521 28.244876396282976 1 0 0
8393 0 1 0 7.027349689012342 79.62742584741855 28.417451127110358 1 0 0
8394 0 1 0 7.7866320972414105 80.84843143099137 28.29894937558497 1 0 0
8395 0 1 0 7.091359961519068 82.05096036577537 28.31910444670689 1 0 0
8377 0 1 0 2.729057926367797 84.48441477985259 28.17365763018329 1 0 0
8378 0 1 0 3.4576913158324736 85.73240226284568 28.15663672391092 1 0 0
8370 0 1 0 1.327417696742034 86.97627148758954 27.932360049140243 1 0 0
8379 0 1 0 2.7531834208805392 86.9705872681736 28.10279430536706 1 0 0
8387 0 1 0 4.87310708328022 83.27637057299748 28.20806591176117 1 0 0
8396 0 1 0 7.722063874754488 83.32122950274109 28.196599062032305 1 0 0
8389 0 1 0 4.91154093273074 85.75718421099114 28.172300347499643 1 0 0
8390 0 1 0 5.609451306530142 87.00564897150447 28.206670867090633 1 0 0
8347 0 1 0 9.175279541865612 83.35898777218449 28.180853909770562 1 0 0
8397 0 1 0 7.0433746476010795 84.53548323116546 28.11039400009855 1 0 0
8349 0 1 0 9.12925313679307 85.80900664460525 27.94822580181726 1 0 0
8398 0 1 0 7.699629426820491 85.8269010486977 27.98876876945856 1 0 0
8399 0 1 0 7.018122596857042 87.04752652247295 28.052333662038265 1 0 0
8388 0 1 0 5.615775818809673 84.51678875012266 28.242999691344888 1 0 0
8380 0 1 0 3.4701270210788673 88.25697169685549 28.052670025625673 1 0 0
8422 0 1 0 1.322702182428523 89.55248417595068 28.11323875248152 1 0 0
8431 0 1 0 2.7598799667267886 89.5344035169139 28.223908132851705 1 0 0
8432 0 1 0 3.5039259284398345 90.78840883670561 28.190420927182377 1 0 0
8424 0 1 0 1.350263697138118 91.99038156648241 28.08743650577793 1 0 0
8433 0 1 0 2.758082608611138 91.99716922462228 28.065635839530657 1 0 0
8361 0 1 0 0.6470284036651636 88.27388558404886 27.975726946060767 1 0 0
8423 0 1 0 0.6167393528162339 90.76004985091221 28.165866764769316 1 0 0
8443 0 1 0 4.9121192158529325 90.74803580060635 28.1059431882267 1 0 0
8381 0 1 0 4.909312376633341 88.24829281940224 28.09152844292009 1 0 0
8452 0 1 0 7.73655507337443 90.76090015866833 28.081503822993422 1 0 0
8403 0 1 0 9.1661974109716 90.78339880892533 28.051390234723545 1 0 0
8400 0 1 0 7.696378703574016 88.3030309190786 28.000412840805712 1 0 0
8341 0 1 0 9.166625776719663 88.29312552710432 27.963816687006435 1 0 0
8451 0 1 0 6.982577306703427 89.54224404108237 28.1012614009868 1 0 0
8453 0 1 0 6.997610738147713 91.98195793311379 28.049699849559524 1 0 0
8442 0 1 0 5.5888193466142955 89.52698656698131 28.127884635248016 1 0 0
8444 0 1 0 5.585622691218587 91.97120126139038 28.166145957247608 1 0 0
8281 0 1 0 9.211359826237482 75.9593972412322 28.535135733435474 1 0 0
8373 0 1 0 2.7225036215521645 79.56348355225921 28.300519589420126 1 0 0
8374 0 1 0 3.44514328322674 80.80760513745454 28.274304946208254 1 0 0
8366 0 1 0 1.3057592043810693 82.04770039440614 28.253430490178552 1 0 0
8375 0 1 0 2.6871361621516408 82.03376306831196 28.27416937106229 1 0 0
8365 0 1 0 0.6128914533352697 80.80071887368034 28.19967825681145 1 0 0
8364 0 1 0 1.324486402401646 79.53397243012657 28.25962521622851 1 0 0
8385 0 1 0 4.862499256424931 80.8188446751321 28.330843717586337 1 0 0
8376 0 1 0 3.4298947459774993 83.25329435687667 28.240372562848478 1 0 0
8367 0 1 0 0.6148180623699686 83.2887263146708 28.102895723978087 1 0 0
8368 0 1 0 1.3052537440604735 84.4773086302083 28.040034275682174 1 0 0
8369 0 1 0 0.5987265792915623 85.7298163186112 28.000961173138236 1 0 0
8434 0 1 0 3.4513536484561524 93.26109380256513 28.17417217693419 1 0 0
8435 0 1 0 2.789264318072741 94.47085249086588 28.123507283584825 1 0 0
8436 0 1 0 3.505619462018438 95.71371632459616 28.18004499310222 1 0 0
8428 0 1 0 1.368958704597525 96.94060060616349 28.39438323779649 1 0 0
8437 0 1 0 2.816539472802938 96.89042835556018 28.225591295446762 1 0 0
8427 0 1 0 0.6602860291608436 95.74029091394917 28.214434188873227 1 0 0
8425 0 1 0 0.6359736159960309 93.25125979785301 28.101918581169798 1 0 0
8426 0 1 0 1.3632574731839 94.47342004419684 28.10759274504548 1 0 0
8445 0 1 0 4.902934953153976 93.21137334906341 28.209657186774777 1 0 0
8447 0 1 0 4.930925725616411 95.70958030861449 28.283205815107124 1 0 0
8446 0 1 0 5.58806713382724 94.39261999384016 28.35486645383417 1 0 0
8405 0 1 0 9.205035613441634 93.26610292413868 28.244206325910945 1 0 0
8407 0 1 0 9.201784816565725 95.69734510648678 28.463803086700885 1 0 0
8454 0 1 0 7.765798119819587 93.21523273002373 28.2584512141249 1 0 0
8455 0 1 0 7.037776634699613 94.42915831326965 28.311691028809943 1 0 0
8456 0 1 0 7.785040283956269 95.6950561219581 28.43821602992215 1 0 0
8457 0 1 0 7.0207879186859135 96.8911499606077 28.460756439007277 1 0 0
8448 0 1 0 5.6428570441859724 96.95750772892457 28.395891066397795 1 0 0
8438 0 1 0 3.535532441337886 98.15920117948495 28.26879443927678 1 0 0
8430 0 1 0 1.3675030184919659 99.38737728591589 28.34224237912163 1 0 0
8439 0 1 0 2.7941874186431415 99.40651008653028 28.31700891551107 1 0 0
8440 0 1 0 3.488829757134166 100.62783119164287 28.16995150551374 1 0 0
8441 0 1 0 4.922690540026852 100.6477123474426 28.25534957975617 1 0 0
8421 0 1 0 0.63372885595871 100.64034740929566 28.341369571334525 1 0 0
8429 0 1 0 0.6821646050404514 98.1528769578277 28.357244446155125 1 0 0
8482 0 1 0 1.366865095925861 101.87268507082118 28.24064318781307 1 0 0
8449 0 1 0 4.971965102843753 98.1903199551161 28.23731482073463 1 0 0
8409 0 1 0 9.261694800742177 98.17032759941658 28.157287664404322 1 0 0
8458 0 1 0 7.806785589900917 98.12477630230107 28.29953538946837 1 0 0
8401 0 1 0 9.199193853277338 100.64576597084444 28.032693860561942 1 0 0
8450 0 1 0 5.7059629070131965 99.43488096270733 28.286656497389735 1 0 0
8459 0 1 0 7.110303206431244 99.37280681798985 28.341676632955256 1 0 0
8460 0 1 0 7.796724482240807 100.62702507998439 28.232516261672533 1 0 0
8511 0 1 0 7.048354978505102 101.86877536995085 28.23809400268499 1 0 0
8483 0 1 0 0.6568518828372204 103.1491644661344 28.266206935737866 1 0 0
8485 0 1 0 0.6236425068711435 105.55684132764536 28.20060893380468 1 0 0
8484 0 1 0 1.3820388616988 104.34578005384994 28.12777058611545 1 0 0
8493 0 1 0 2.8043697349678327 104.36599453704227 28.00456584256833 1 0 0
8494 0 1 0 3.4853474398656163 105.58576488895912 27.917012794033056 1 0 0
8491 0 1 0 2.7810983622592174 101.89676122137394 28.093329663518354 1 0 0
8492 0 1 0 3.4257049160888644 103.13230475856552 28.0916134202578 1 0 0
8503 0 1 0 4.902630672418888 103.11010302172073 28.11599348203902 1 0 0
8505 0 1 0 4.939714302583108 105.61029572683076 27.880548675317794 1 0 0
8513 0 1 0 7.064371753366161 104.33078186365476 27.965287957710785 1 0 0
8465 0 1 0 9.123062432174542 105.54596520642475 27.700774489237276 1 0 0
8514 0 1 0 7.748856812461581 105.56081404176926 27.87025441303033 1 0 0
8504 0 1 0 5.645861016920881 104.31307181509624 27.956297787233183 1 0 0
8502 0 1 0 5.631163749308523 101.92931641187097 28.237663568834947 1 0 0
8463 0 1 0 9.206922043076238 103.06065240970128 27.91909851313773 1 0 0
8512 0 1 0 7.758477939411732 103.07476164019856 28.050160657629906 1 0 0
8489 0 1 0 0.6005967199320003 110.54582083875633 28.41442478031802 1 0 0
8487 0 1 0 0.6134223812230117 108.0693204711352 28.395035247121104 1 0 0
8486 0 1 0 1.3496105974994423 106.81830578382555 28.228568539439625 1 0 0
8488 0 1 0 1.3289130785275367 109.30724368954843 28.37731776948949 1 0 0
8495 0 1 0 2.798342275348321 106.82235356591774 28.06914034568027 1 0 0
8497 0 1 0 2.7606430945889557 109.30731348366479 28.183531860805978 1 0 0
8498 0 1 0 3.4869364484976555 110.53079601769522 28.10359986459356 1 0 0
8496 0 1 0 3.488696398057463 108.05811330791843 28.064008069745285 1 0 0
8509 0 1 0 4.876612881114129 110.54445865132054 27.793547329752748 1 0 0
8507 0 1 0 4.890334558339955 108.10709709832192 27.917971284306624 1 0 0
8467 0 1 0 9.169072144145234 108.00222146256374 27.588897434841954 1 0 0
8515 0 1 0 7.047357241088422 106.81432235310609 27.771300461171098 1 0 0
8506 0 1 0 5.634457882584969 106.86509538977084 27.95045465343108 1 0 0
8469 0 1 0 9.214287968898917 110.5315353465763 27.594842575557884 1 0 0
8508 0 1 0 5.595161746830834 109.29882686945028 27.743727991505867 1 0 0
8517 0 1 0 7.0483226294674655 109.29780963908604 27.693750306107717 1 0 0
8518 0 1 0 7.773056667895924 110.56660009969204 27.667765446355666 1 0 0
8516 0 1 0 7.730556258254599 108.01441473561844 27.655936644169635 1 0 0
8490 0 1 0 1.3262102592149416 111.76849852638034 28.20699735283301 1 0 0
8499 0 1 0 2.7657670091961277 111.75683311865956 28.155190200942982 1 0 0
8500 0 1 0 3.503184025446063 112.98398522742403 28.065377313681736 1 0 0
8501 0 1 0 4.893043263286401 113.01430030715328 27.79993465383031 1 0 0
8551 0 1 0 2.7996213410641992 114.2283828493641 27.97675242784579 1 0 0
8542 0 1 0 1.3550023609545077 114.19872502161896 27.900517678177753 1 0 0
8481 0 1 0 0.6288470321498374 112.9764721040249 28.109742042411526 1 0 0