(written by ASE)

16140 atoms
3 atom types

0.0      154.00799999999998  xlo xhi
0.0      148.19999999999999  ylo yhi
0.0      151.07609208607428  zlo zhi

Masses

     1      12.010999996910238 # C
     2      1.0079999997406979 # H
     3      15.998999995884349 # O

Atoms # full

     1   0   1   0.0      21.034269467281721      3.3422260536806614      25.423997079601616
     2   0   1   0.0       8.982558190227202     -7.6950922371979091      25.291713967616857
     3   0   1   0.0      21.076804999279037     -6.5194997517174906      25.707310368787049
     4   0   1   0.0      8.9715691741040207     -5.2093458652906932      25.355051959963046
     5   0   1   0.0      21.136083643589899     -4.0229479005773294      25.623323693533312
     6   0   1   0.0      8.9371281285434367     -2.7356583651599733      25.452460566294651
     7   0   1   0.0      21.048036027163199     -1.5468674184073259      25.535299051528604
     8   0   1   0.0      8.9323340873935724    -0.24240840444435105      25.382111065516899
     9   0   1   0.0       21.05027596755809     0.87390466786276821      25.507720427020637
    10   0   1   0.0      8.9363033142008419      2.1927807203344387       25.25003402510173
    11   0   1   0.0      10.384463971775373     -7.7154579437756814      25.410606277075399
    12   0   1   0.0       11.13981068395135     -6.5040770325576283      25.639755178399053
    13   0   1   0.0      10.408720269318414      -5.261995379443456        25.5297414720586
    14   0   1   0.0      11.099630903499282     -4.0072736990205122      25.635264899298853
    15   0   1   0.0      10.351783390770596     -2.7642470456908925      25.673913778131492
    16   0   1   0.0       11.09286868275961     -1.5225483437624914      25.592826657459398
    17   0   1   0.0       10.36090157176009    -0.27212499567728449      25.433336190251712
    18   0   1   0.0       11.09693650869432     0.99516296268756077      25.347567287415721
    19   0   1   0.0      10.366587056865388      2.2246448022288789      25.254799400082057
    20   0   1   0.0      11.061485914867173      3.4426079527303659      25.153440540988065
    21   0   1   0.0       12.50973603741539       3.441584351860735      25.179140349922129
    22   0   1   0.0      13.202840766055147     -7.7801779524687982      25.606809561823162
    23   0   1   0.0      12.540355446036266     -6.5021798739572336      25.711091000190667
    24   0   1   0.0      13.254124962512501     -5.2407041956243852      25.767109978703697
    25   0   1   0.0      12.544529341737334     -4.0178170616959461      25.734841553617549
    26   0   1   0.0      13.261387827551001     -2.7949217208392296      25.657904404176925
    27   0   1   0.0      12.534817844026685     -1.5253826173218754      25.580008795388668
    28   0   1   0.0      13.260333782803141    -0.28276651358601418       25.35403948517013
    29   0   1   0.0      12.521215036420985     0.96567326415285848      25.256702236091972
    30   0   1   0.0       13.22386066410078      2.1403720282181271      25.131027683343618
    31   0   1   0.0      14.630220338257068     -7.6843640765384267      25.523831125241365
    32   0   1   0.0      15.385841881040669     -6.4888643866029083      25.598581019033848
    33   0   1   0.0       14.65852662010767      -5.250138185177696      25.704230912952909
    34   0   1   0.0      15.392758798279637     -4.0299221674323249      25.662772738440655
    35   0   1   0.0      14.709489413882364     -2.7966130268091582      25.617143546389414
    36   0   1   0.0      15.375633821021069     -1.5178612825292035      25.592379188883996
    37   0   1   0.0      14.666397578505011    -0.28247435917539099      25.428523945807516
    38   0   1   0.0      15.373852942557878     0.91958334791018959      25.389828759241663
    39   0   1   0.0      14.647061238762477      2.1624981953292579      25.232270864577405
    40   0   1   0.0      15.424754219496528      3.4058640726016471       25.27844661166073
    41   0   1   0.0      16.847371604762213      3.3718341264176837      25.336701502919723
    42   0   1   0.0      17.529918741510713     -7.7156903098061287      25.606992230828837
    43   0   1   0.0      16.818262584420125     -6.5061107464264536       25.56579431417801
    44   0   1   0.0      17.576475144845993     -5.2454551374373253       25.58023986801102
    45   0   1   0.0      16.798877792059532      -4.028738026225863      25.555912581839031
    46   0   1   0.0      17.495263579345384     -2.7985424554055349      25.504316880504117
    47   0   1   0.0      16.772022380685637     -1.5355328875482099      25.494594834476182
    48   0   1   0.0      17.496540580245838    -0.31981419268044442       25.54934478407316
    49   0   1   0.0      16.781718728100461     0.91201779388152593      25.468541253581339
    50   0   1   0.0      17.500425762616842      2.1133567371336515       25.39913523146539
    51   0   1   0.0      18.983469941841165     -7.7549118294013866      25.643855533361481
    52   0   1   0.0      19.658423461384299     -6.5339084001981655      25.727676425876474
    53   0   1   0.0       18.97325420018301     -5.2913349444430322      25.646341181283027
    54   0   1   0.0      19.659268459005485      -4.019941396511066      25.529346304828049
    55   0   1   0.0      18.948439411630694     -2.7592107951134368      25.529417777373524
    56   0   1   0.0      19.624326209693027     -1.5530444828144674      25.526907141381894
    57   0   1   0.0      18.938920524332463    -0.31858024572309995       25.54720927229425
    58   0   1   0.0      19.611012287003906     0.92630314505090372      25.572150914866295
    59   0   1   0.0       18.88887272933643      2.1252254766811127      25.488244309706666
    60   0   1   0.0       19.60545234074408      3.3768178514205824      25.484268853451148
    61   0   1   0.0      21.087115764226617       15.76313886971184      25.075846045430719
    62   0   1   0.0      8.9082892496948869      4.6599189041771867      25.187355172486903
    63   0   1   0.0      21.084613037855718      5.8423689623470798      25.207539933248942
    64   0   1   0.0      8.9207425565403149      7.1337428262442906      25.128258105933114
    65   0   1   0.0       21.05917483408496      8.3539780625860356       25.05575162525928
    66   0   1   0.0      8.9141114008557079      9.6606824731451884      25.163475814216216
    67   0   1   0.0      21.081848326908151      10.796965396042328      25.116822156269393
    68   0   1   0.0      8.9031441928042945      12.080804208391328      25.358598355714708
    69   0   1   0.0      21.129021454159602      13.272486999207381      25.059130242235675
    70   0   1   0.0      8.9287089853817747      14.503927541895385      25.479664769424499
    71   0   1   0.0      10.371909738477271       4.721223882691806       25.16853840942165
    72   0   1   0.0       11.08631135150066      5.9210594542065103      25.225771021107231
    73   0   1   0.0      10.351468086074325      7.1382761101547159      25.200171859577235
    74   0   1   0.0      11.051595971588535      8.3787976257497796      25.204097884171354
    75   0   1   0.0      10.320107000847665      9.6070880357290225      25.138209657907957
    76   0   1   0.0      11.066149985829217      10.849989330485121      25.144460840417391
    77   0   1   0.0      10.362386299525213      12.061295507274103      25.228884940954604
    78   0   1   0.0      11.037521453655652      13.311982740219195      25.320990438840365
    79   0   1   0.0      10.320658064647034      14.498288497728792      25.394450259349426
    80   0   1   0.0      11.076106601671178       15.81950055688538      25.325728734455328
    81   0   1   0.0      12.466693730176937      15.780809600516703      25.206715581867151
    82   0   1   0.0      13.263861607821987      4.6394767030085236      25.165837905169251
    83   0   1   0.0      12.502426084453857      5.8908718343639981       25.22659297815278
    84   0   1   0.0      13.262410375973564      7.1170034805564351      25.261613093082971
    85   0   1   0.0      12.462486200488966      8.3570210756799259      25.253060329974709
    86   0   1   0.0      13.145827837845076      9.5915708348657436      25.302010799789308
    87   0   1   0.0      12.482179617042053      10.831968752349731      25.197916026243174
    88   0   1   0.0      13.210140782686763      12.087335655700111      25.202325271136562
    89   0   1   0.0      12.516071095494571       13.34998622978109      25.260818636934868
    90   0   1   0.0      13.182745641915915      14.514612089274312      25.150350409689405
    91   0   1   0.0      14.690319652447172      4.6107157803206293      25.205191557626684
    92   0   1   0.0      15.423552007958012      5.8525532695186744      25.166432475071534
    93   0   1   0.0      14.675338147798476      7.0801620869737034      25.228061472429559
    94   0   1   0.0      15.298284147449346      8.3347811184683653      25.121074069450824
    95   0   1   0.0       14.60974862314753      9.5675297551264382       25.25410416131805
    96   0   1   0.0      15.303564511771448       10.77218794770558      25.225520039452761
    97   0   1   0.0      14.657169209579598      12.067889342761823      25.201137186120658
    98   0   1   0.0       15.34376682238833       13.27782545461225      25.184709875871619
    99   0   1   0.0      14.635309633573245      14.537335880876824      25.114254060611195
   100   0   1   0.0      15.322108582974394      15.784736330606865      25.136250880488618
   101   0   1   0.0      16.727311657160268      15.752829090581896      25.041278889045167
   102   0   1   0.0      17.580178743914363      4.5985918753944981      25.221550659836474
   103   0   1   0.0      16.844854697292625      5.8148942725288517      25.102889808379594
   104   0   1   0.0      17.492559499938125      7.0526593563461661      25.040148329669474
   105   0   1   0.0      16.723744757517128      8.2951067498903406      25.077177426837054
   106   0   1   0.0      17.492932067031983      9.5223897995571551      24.921050832947966
   107   0   1   0.0      16.758134127663741      10.796229587754111      25.059265096678221
   108   0   1   0.0      17.515470893432862      12.034278315623771      25.049412826560648
   109   0   1   0.0      16.767123054594279       13.26023993818492      25.140213584991269
   110   0   1   0.0      17.431904712162467      14.512369188330451      25.148558017887943
   111   0   1   0.0      18.969244975255933      4.6360859346153029      25.262111762372513
   112   0   1   0.0      19.665132813068414      5.8755320040234755      25.214512816136949
   113   0   1   0.0      18.936572146447013      7.0639086691873292      25.088155482456248
   114   0   1   0.0      19.639456391083932      8.3380531269573801      25.082990966442203
   115   0   1   0.0      18.931812470905378      9.5885828539188296      25.010401518744587
   116   0   1   0.0      19.648799566795052      10.780383415904984      25.063703575979588
   117   0   1   0.0      18.933720514065353      12.028791043473754      25.102561509148877
   118   0   1   0.0      19.679162810884389      13.285521935411536      25.060869361900718
   119   0   1   0.0      18.894019172669978      14.494727971179701      25.148599507080402
   120   0   1   0.0      19.645301009592512      15.729629556973734      25.136836214957974
   121   0   1   0.0      21.068482607695881      28.165776820803661      25.142940522493475
   122   0   1   0.0       8.934081887267979      16.981045161995247      25.320622876771058
   123   0   1   0.0      21.088040968424828      18.218743284261414      25.060057048256233
   124   0   1   0.0      8.9695164643251495      19.446427785167039      25.385239879488093
   125   0   1   0.0      21.059235539769521      20.697857511323782      24.983020201184576
   126   0   1   0.0      8.9090752852494912      21.857777325888957      25.410696412720217
   127   0   1   0.0      21.048555643088747      23.162784417341896      24.861227924578284
   128   0   1   0.0      8.9680968668797121      24.366594605370555      25.364384951096703
   129   0   1   0.0      21.052202350561931       25.65119367921309      25.071405050896754
   130   0   1   0.0      8.9325185842231125      26.856505640214532      25.465140701428329
   131   0   1   0.0      10.356532239002846       17.02460047643773      25.297730874008337
   132   0   1   0.0       11.08002006955379       18.25035614207852      25.308152050928523
   133   0   1   0.0      10.420034005807995      19.503178634211729      25.340695059496845
   134   0   1   0.0      11.080276898026945      20.756775036953858      25.356722490941028
   135   0   1   0.0      10.343427195216639      21.933121840854216      25.317536757594123
   136   0   1   0.0       11.09537611910627      23.144703795311681      25.485537665459439
   137   0   1   0.0      10.365338065534431      24.403121731643648      25.428375443057011
   138   0   1   0.0      11.106819404736388      25.635210183672672      25.485739402493124
   139   0   1   0.0      10.379755161085411      26.860933639890835      25.503405261930894
   140   0   1   0.0      11.061809735235167      28.118186824517259      25.592860180029273
   141   0   1   0.0       12.51707109665298      28.052731403539575      25.615809164847402
   142   0   1   0.0      13.180785525725126      16.954773443670518      25.192385584607567
   143   0   1   0.0      12.533495448729838      18.233876497122647      25.273780811653157
   144   0   1   0.0      13.210880463604349      19.478803111656358      25.146473317141329
   145   0   1   0.0      12.505310092768974      20.701375949635118      25.338223492591656
   146   0   1   0.0       13.28149763013071      21.930374054073962      25.387005174550303
   147   0   1   0.0      12.536587922029067      23.118585113944651      25.455748535155074
   148   0   1   0.0      13.247351673515078      24.364617850227095      25.516722770372642
   149   0   1   0.0      12.523764555110466      25.611573357130634         25.561479113716
   150   0   1   0.0      13.201572793445646      26.853524465724576      25.604073510388318
   151   0   1   0.0      14.589921621888283      17.036693035567765      25.171111354411885
   152   0   1   0.0      15.316015265858704      18.255812352911889      25.134320398770473
   153   0   1   0.0      14.596654037581377      19.475862225465047      25.165116298708586
   154   0   1   0.0      15.363576283786816      20.655287978857945      25.117638464733151
   155   0   1   0.0      14.682078168470309      21.943515176936646      25.376420599031103
   156   0   1   0.0      15.400818582302287      23.122107110481402      25.423991965054988
   157   0   1   0.0      14.673609902382442      24.377938011510441      25.561700190856453
   158   0   1   0.0      15.336617839303962       25.65405732442381      25.581724512597063
   159   0   1   0.0      14.676438439168876      26.930259277949812      25.551032193729345
   160   0   1   0.0      15.410816239835491      28.178946719942779      25.589015222039333
   161   0   1   0.0      16.839359463488353      28.115074404255314      25.645600127491804
   162   0   1   0.0      17.474903000499509      16.964942314210049      24.976642249116711
   163   0   1   0.0      16.732548276517189      18.178517642004174      24.932439900603015
   164   0   1   0.0      17.460333383336472      19.428227706024881      24.862856576050206
   165   0   1   0.0      16.764647060736422      20.673591291840847      24.948467932685244
   166   0   1   0.0      17.483874027120748       21.88896658173239      25.066423620641746
   167   0   1   0.0      16.827998626009595      23.124780310006621      25.275625941777815
   168   0   1   0.0      17.531714028627103      24.355701338807929      25.420745828713521
   169   0   1   0.0      16.786763587060637      25.608083848866983      25.564604131129204
   170   0   1   0.0      17.527595933464937      26.856683513690037      25.582865336711262
   171   0   1   0.0      18.896231452278744      16.961715662933162      25.099030773687215
   172   0   1   0.0      19.629879296797832      18.142521469714204      24.983414777088456
   173   0   1   0.0      18.860057436516097      19.373970422700125      24.878849717722783
   174   0   1   0.0      19.597617949510674       20.65760921711534      24.980320643733219
   175   0   1   0.0      18.893960379066755      21.866857161480429      25.065732726985114
   176   0   1   0.0      19.646734940158879      23.139136855883304      25.097468673310921
   177   0   1   0.0      18.945106648976274      24.394399180648314      25.310284493368339
   178   0   1   0.0        19.6491930466482       25.65214354816359      25.244336021413421
   179   0   1   0.0      18.977834617942349      26.863490492383139      25.425372220845418
   180   0   1   0.0      19.654467374061113      28.156938332738868      25.260733541939985
   181   0   1   0.0       21.06217882204929      40.413493949999612      24.253953186126495
   182   0   1   0.0      8.9064168437579525      29.304987639631459      25.468356657648119
   183   0   1   0.0      21.112356195934623      30.608415684806019      25.034537494135158
   184   0   1   0.0       8.952472220871206      31.759463200730362      25.349191259307496
   185   0   1   0.0      21.109895341430715      33.088813854206471      24.948677474088033
   186   0   1   0.0      8.9306390404874456      34.195498561882026      24.965872329030717
   187   0   1   0.0      21.049061389943013      35.493945867486495      24.921304838861463
   188   0   1   0.0      8.8930877937431543      36.696896407603127      24.718042900056723
   189   0   1   0.0      21.078587890031649      37.965722129658161      24.651463042109015
   190   0   1   0.0      8.9033467260416046      39.110438790051177      24.409601865620992
   191   0   1   0.0      10.375043112902523      29.347503204322713       25.54121356701387
   192   0   1   0.0      11.077275109194014      30.581671020711539      25.472406435193044
   193   0   1   0.0       10.33368249250236      31.806029206868491      25.286554592552971
   194   0   1   0.0      11.116144994015555      33.040357395379971      25.072609890564159
   195   0   1   0.0      10.321853848930637      34.229367702517969      24.977543967192894
   196   0   1   0.0      11.053694818304033      35.403341747300885      24.774282435100751
   197   0   1   0.0      10.345404536635687      36.665560000001108      24.744600373490556
   198   0   1   0.0       11.05672684750108      37.893368858412629      24.603108020204399
   199   0   1   0.0      10.351867467521256      39.085236345743724      24.524755359462286
   200   0   1   0.0      11.072408972466194      40.349143371559315      24.513319292541144
   201   0   1   0.0      12.486370212522454      40.481191714967373      24.533978563182306
   202   0   1   0.0      13.269595377006137      29.308225254469118      25.605477252534474
   203   0   1   0.0      12.524446122316379      30.629878136209207      25.529903179265752
   204   0   1   0.0      13.220870464579914      31.835199292487165      25.336088237001093
   205   0   1   0.0      12.539188616522818      33.045503836889736      25.168881034565228
   206   0   1   0.0      13.260445884279754      34.277401548719581      25.001151314492883
   207   0   1   0.0      12.492877784811618      35.462360693887732      24.916721900679288
   208   0   1   0.0      13.184434407653969      36.751348333647059      24.766759614110757
   209   0   1   0.0      12.443804225433606      37.943047347074327      24.701666987617166
   210   0   1   0.0      13.164332609785466      39.211040693748807      24.634005056701458
   211   0   1   0.0      14.704590808165879      29.393113392855057      25.597880403784576
   212   0   1   0.0      15.379282802197107      30.581175168525046      25.467350616813036
   213   0   1   0.0      14.656783570296675       31.81337338545687      25.393817436473448
   214   0   1   0.0      15.344706542870439      33.027045827461613      25.258100121489122
   215   0   1   0.0      14.683782771792652      34.296988726718979      25.138339610702872
   216   0   1   0.0      15.321240853101713      35.512967771881783       25.02334064975468
   217   0   1   0.0      14.576822249816006      36.799699816313876      24.903381821056406
   218   0   1   0.0      15.362316095118031      37.962033006252547      24.848775761699816
   219   0   1   0.0      14.580738734139532        39.2060091179465      24.734830220106552
   220   0   1   0.0      15.334047249468508      40.453579428535448      24.534508271294268
   221   0   1   0.0      16.768955614447815      40.418989500115728      24.558043133858284
   222   0   1   0.0      17.511034622330584      29.334179332748004       25.53599034962091
   223   0   1   0.0      16.794864656555092      30.537253051309555      25.416512605598168
   224   0   1   0.0      17.503627493339202      31.820656053352021       25.17149857036835
   225   0   1   0.0      16.729370701775355       33.02560350433734      25.129433726234204
   226   0   1   0.0      17.470346280808357      34.271469351080626      25.078689509922153
   227   0   1   0.0      16.770058830578648      35.530801011416301      25.016750166546057
   228   0   1   0.0      17.501364770248777      36.758419314761717      25.031737126896168
   229   0   1   0.0      16.786452041201255      37.944779051030579      24.926800896702705
   230   0   1   0.0      17.494413241505569      39.151137246666643      24.693717790600271
   231   0   1   0.0       18.93797359024121      29.372351916759385       25.36038654233991
   232   0   1   0.0      19.663814560344083      30.565300843526224      25.166761182201423
   233   0   1   0.0      18.946872449705786      31.782839992675367      25.042382738307452
   234   0   1   0.0       19.64796320599169      33.068619143322039      25.016583193717214
   235   0   1   0.0      18.955604669651489       34.25742097427441      25.001145021362706
   236   0   1   0.0      19.671507298026871      35.484317402073899      25.000738076912928
   237   0   1   0.0       18.94351626359191      36.715753769118649      24.902349339081681
   238   0   1   0.0      19.630037390389312      37.943524216069072      24.734404068431246
   239   0   1   0.0      18.910189776337038      39.171460425730238      24.554303642317329
   240   0   1   0.0       19.64214652736845      40.451952483976072      24.407426998178668
   241   0   1   0.0      21.062735426886725      52.791762541989719      24.187558646937251
   242   0   1   0.0      8.8477571141610252      41.622594793926574      24.305508162729826
   243   0   1   0.0      21.119620646768368      42.910049462150823      24.080965525127095
   244   0   1   0.0      8.9119161413356451      44.155443717448271      24.153703642529095
   245   0   1   0.0      21.041029559047001      45.376465669901272      24.212207736962164
   246   0   1   0.0      8.9278578641810498      46.572734459092828      24.114808420279175
   247   0   1   0.0      21.040148850521522      47.810027764950739      24.218177046600122
   248   0   1   0.0      8.9289466561031929      49.061970684041285      24.161410328943635
   249   0   1   0.0      21.106435534863902      50.317771965943194      24.198452682036137
   250   0   1   0.0      8.9038022850617775      51.564923063175264      23.996042460244816
   251   0   1   0.0      10.322789220092334      41.622282519608696      24.344765755019377
   252   0   1   0.0      11.028633789364312      42.910197516097853      24.231578447797389
   253   0   1   0.0      10.336458361629363       44.15624602143091       24.06660240192641
   254   0   1   0.0      11.051399118111842      45.348595787441475      23.998116542582224
   255   0   1   0.0       10.39040376602944      46.576516752708272      24.074659772773181
   256   0   1   0.0      11.064552015663114      47.842806103573231      24.061633808881069
   257   0   1   0.0      10.316657934985777      49.085013743911482      24.069775684276813
   258   0   1   0.0      11.041779763484254      50.285114207432692       23.93171398969891
   259   0   1   0.0      10.347282971765825      51.555428134103202      23.873737130813687
   260   0   1   0.0      11.107207431539198      52.778157923769115      23.851287879910451
   261   0   1   0.0       12.48488959693425      52.733856130522661      23.926454568153712
   262   0   1   0.0      13.185954347377058      41.755650240787133      24.452060305296882
   263   0   1   0.0      12.448157196624106      42.919790426813229      24.313810194843693
   264   0   1   0.0      13.169249523816374       44.13563671066445      24.215841472051597
   265   0   1   0.0      12.482839533357264      45.364444279935832      24.072555603645899
   266   0   1   0.0      13.220958732479113      46.586417801940676      24.018860956157003
   267   0   1   0.0      12.502285352861962       47.81316575097388      23.979729432130391
   268   0   1   0.0      13.249852172941109      49.089282317389127      23.961322990764387
   269   0   1   0.0      12.536198860832062        50.3164822764831      23.893931974266575
   270   0   1   0.0      13.225714374944785      51.492575465404009      23.927859915289098
   271   0   1   0.0      14.620254926365497      41.731868234249681      24.452645234100018
   272   0   1   0.0      15.315865687722896      42.904326751441523       24.37985105866894
   273   0   1   0.0      14.641088035058621      44.145205933067238      24.257317281506086
   274   0   1   0.0      15.354803821378422      45.372071400684362      24.155209662727284
   275   0   1   0.0      14.667062207503756      46.656060582607097      24.087249885328877
   276   0   1   0.0      15.425177081172457      47.874195652387471      24.151639370108057
   277   0   1   0.0      14.652222828738697      49.112607864893327       24.07852320206036
   278   0   1   0.0      15.379305455506413      50.317296237692403      24.034718690948445
   279   0   1   0.0      14.720080661011464      51.548870642040406      23.974146442568969
   280   0   1   0.0      15.425656106144666      52.799482279552869      23.951012886881237
   281   0   1   0.0      16.860361924847783      52.815855205821052      24.055077369991523
   282   0   1   0.0      17.498991415747131      41.676013827715103        24.3831866105015
   283   0   1   0.0      16.774411470046697      42.885382605114067      24.302381982607649
   284   0   1   0.0      17.540427904588896      44.110603768130517      24.237691001874605
   285   0   1   0.0      16.811749904465682      45.334894658703853      24.136696183538312
   286   0   1   0.0      17.497329415303597      46.591113099365899       24.04328343906213
   287   0   1   0.0      16.806642875437692      47.900361242529776      24.108069999176617
   288   0   1   0.0      17.497172637996201       49.12050416606273      24.109719927485081
   289   0   1   0.0      16.773103323499708      50.344807580693818      24.081519593237854
   290   0   1   0.0      17.516408430940128      51.561018288927691      24.150658280470125
   291   0   1   0.0      18.920079686065819      41.669409339496745      24.295594087749613
   292   0   1   0.0      19.654943199486677      42.897857172364894      24.197059100324271
   293   0   1   0.0      18.971839035341318      44.094222652449574      24.222273942617122
   294   0   1   0.0      19.605753969124205      45.392786080278448      24.068719499755876
   295   0   1   0.0      18.887910378958527      46.632208524199761      24.104608217645435
   296   0   1   0.0      19.636762206427079      47.876481365545459      24.146496644286504
   297   0   1   0.0      18.948877488549851      49.120544168891364      24.180153621874894
   298   0   1   0.0      19.671793004067435      50.344247120307635      24.147158177842467
   299   0   1   0.0      18.947586401877551      51.565357172266502       24.18822258151561
   300   0   1   0.0      19.680650876286933      52.784519279015363      24.221861827296937
   301   0   1   0.0      21.095275332635342      65.117216343533244      24.417410525908732
   302   0   1   0.0      8.9901891710612283      53.966936077384098      23.894529960554983
   303   0   1   0.0      21.119002369647696      55.269215897815357      24.307519308083684
   304   0   1   0.0      8.9473455835504225      56.454380270952925      23.901560620267844
   305   0   1   0.0      21.117299947232674      57.765632542819148      24.466762013092662
   306   0   1   0.0      8.9953429917159777      58.918378742588857      24.022581587878808
   307   0   1   0.0      21.136832796127802      60.194309254063377      24.517308177198284
   308   0   1   0.0      8.9592877962894804      61.397852758446987      24.042289489273713
   309   0   1   0.0      21.116881571785761       62.64549436109543      24.482459651745643
   310   0   1   0.0      9.0033024428022994      63.872547369891855      24.000686523205129
   311   0   1   0.0      10.382387355737174      54.010448260610346      23.942325030800557
   312   0   1   0.0      11.122347045082702      55.258628333957759      23.983536511412073
   313   0   1   0.0      10.389998887092743      56.467434057364827      23.950784292346984
   314   0   1   0.0      11.097667287642704      57.682906382122667      24.136557162417848
   315   0   1   0.0      10.427194422527624      58.931573068820576      24.190155302354956
   316   0   1   0.0      11.157638824688345      60.164791692921348       24.21863407199157
   317   0   1   0.0      10.409966765209933       61.38438980235528      24.090245980877395
   318   0   1   0.0      11.128480952212639      62.626587542227512      23.895592680122892
   319   0   1   0.0      10.410894144137878      63.874255746953558      23.929416216243059