LAMMPS data file via write_data, version 4 Feb 2025, timestep = 50000, units = metal

22680 atoms
3 atom types

0 154.00799999999998 xlo xhi
0 148.2 ylo yhi
0 151.07609208607428 zlo zhi

Masses

1 12.01099999691024
2 1.007999999740698
3 15.99899999588435

Atoms # full

7925 0 1 0 0.5456043645893354 2.6352354848771675 10.367505936677553 1 0 0
13 0 1 0 2.6907714500179343 1.3494834211329052 10.32692897411473 0 0 0
7923 0 1 0 0.6171859496871795 0.13913044862981067 10.1860772352128 1 0 0
14 0 1 0 3.4311838415552094 2.593343034985706 10.422093661251173 0 0 0
4 0 1 0 1.2834541332268696 1.421803874247695 10.257194258078282 0 0 0
15 0 1 0 2.7412378730615834 3.844910487146209 10.573977299581895 0 0 0
6 0 1 0 1.267999410932421 3.864217193117689 10.532215359342404 0 0 0
96 0 1 0 7.718852906059501 17.30409183220747 11.871571048734754 0 0 0
86 0 1 0 5.630752645690585 16.16099118267618 11.48472999668064 0 0 0
25 0 1 0 4.875863304156713 2.5796868155113444 10.53578533581195 0 0 0
34 0 1 0 7.6625631181706035 2.5682752008791088 10.636407708917286 0 0 0
45 0 1 0 9.08918820442136 2.5709523419854525 10.728642614410669 0 0 0
107 0 1 0 9.121394219459862 17.377129318006947 12.050169023990827 0 0 0
26 0 1 0 5.525007063846924 3.8014034426107552 10.76303645357768 0 0 0
35 0 1 0 6.927510078414587 3.801420817277218 10.854232182687566 0 0 0
33 0 1 0 7.016263076442666 1.350166773318537 10.456905643434771 0 0 0
24 0 1 0 5.598745579796502 1.3645586214072505 10.383255368095913 0 0 0
32 0 1 0 7.695825712019279 0.10244549401596807 10.432682431515513 0 0 0
16 0 1 0 3.4136308564987012 5.048537098128712 10.808390758230619 0 0 0
27 0 1 0 4.844934443760161 5.02332694834353 10.909991701052784 0 0 0
7927 0 1 0 0.5443061248664717 5.047723919833614 10.750336607498658 1 0 0
17 0 1 0 2.743640148010683 6.253002611067531 10.838510261284085 0 0 0
8 0 1 0 1.2783372489180653 6.284618211769369 10.86941010102218 0 0 0
18 0 1 0 3.3982176423614048 7.444595810742989 11.063168409617472 0 0 0
19 0 1 0 2.676414293836504 8.737433881278038 11.088841635451528 0 0 0
7929 0 1 0 0.5466711543358325 7.4577095888196965 10.990802048417146 1 0 0
10 0 1 0 1.2445311846591605 8.714942087495219 11.097046051028935 0 0 0
29 0 1 0 4.834944910922398 7.467105147313208 11.12990553235063 0 0 0
36 0 1 0 7.66471855254419 4.987543655880819 11.00956400061456 0 0 0
37 0 1 0 7.0073445082232215 6.24988711145204 11.167647349665215 0 0 0
47 0 1 0 9.106766434445522 5.0147787382689835 10.980885077000412 0 0 0
49 0 1 0 9.129599500586265 7.451652148918387 11.46196989767604 0 0 0
28 0 1 0 5.602325202236772 6.2327373529884555 11.099416017063172 0 0 0
38 0 1 0 7.7235094826782476 7.465660864479338 11.329526637081772 0 0 0
30 0 1 0 5.584652991394126 8.662648612602496 11.216136356811388 0 0 0
39 0 1 0 6.998597464352347 8.688812724022542 11.386848163806665 0 0 0
7921 0 1 0 0.5623173128946849 10.008392111975182 10.973719334480702 1 0 0
20 0 1 0 3.46421079527128 9.927154523730461 11.1384702247803 0 0 0
62 0 1 0 1.3351303247551656 11.233492170213486 11.097021425689427 0 0 0
7983 0 1 0 0.6042210770454928 12.440963404153702 11.009593957602114 1 0 0
71 0 1 0 2.7901852905781115 11.215502411418326 11.082116456280508 0 0 0
21 0 1 0 4.907769351058748 9.911638146886757 11.146681078707463 0 0 0
83 0 1 0 4.9128153629076445 12.464408730367126 11.16670704055209 0 0 0
64 0 1 0 1.2949425822250427 13.693608047631466 11.151859408639938 0 0 0
72 0 1 0 3.4829528213583023 12.43798982821721 11.097243561263419 0 0 0
73 0 1 0 2.7057859024759447 13.709454929251635 11.15632539049907 0 0 0
40 0 1 0 7.753491327304697 9.940496541259606 11.52338212855853 0 0 0
82 0 1 0 5.612552123912574 11.208101220482629 11.265432047588876 0 0 0
41 0 1 0 9.145042221996537 9.953705139241547 11.553521327428914 0 0 0
91 0 1 0 7.0284927035213105 11.199120301670458 11.458155802133092 0 0 0
92 0 1 0 7.7363032874261535 12.42138963020348 11.442452151863382 0 0 0
103 0 1 0 9.19119046404336 12.425053577638598 11.571506193742533 0 0 0
93 0 1 0 7.046022994344224 13.648401564904386 11.424268875808307 0 0 0
84 0 1 0 5.606413099712857 13.685337546377822 11.25562635073858 0 0 0
76 0 1 0 3.4540138138290764 17.368337583381262 11.537791019701602 0 0 0
85 0 1 0 4.931373635990817 14.921686381910034 11.29150809079376 0 0 0
7985 0 1 0 0.5922761797517144 14.919803831654455 11.318301300832884 1 0 0
74 0 1 0 3.4584857260727575 14.892149947178787 11.254681819801318 0 0 0
66 0 1 0 1.305775621808639 16.13857311134743 11.311068670975102 0 0 0
75 0 1 0 2.754570000627538 16.16571618818655 11.364017929527908 0 0 0
7987 0 1 0 0.6293214352209375 17.369086849046777 11.411518336960361 1 0 0
87 0 1 0 4.9010850606529885 17.387636632723286 11.559517743343887 0 0 0
95 0 1 0 7.023139909287124 16.131694465629593 11.597889108804134 0 0 0
105 0 1 0 9.167132625499473 14.914631969102512 11.773272930522253 0 0 0
94 0 1 0 7.766860155222954 14.890562222354722 11.550794322327707 0 0 0
23 0 1 0 4.893236846319987 0.11054526585991878 10.263185242149639 0 0 0
12 0 1 0 3.460150585411146 0.12293072920716992 10.2961294550773 0 0 0
43 0 1 0 9.164932237945294 0.12016024193365589 10.480611612187525 0 0 0
8045 0 1 0 0.5744855685126029 27.2187799243436 12.20100282910585 1 0 0
7989 0 1 0 0.6772068440864705 19.89415524250605 11.588874252767747 1 0 0
7981 0 1 0 0.6158807280869187 22.341417740579313 11.800612805065729 1 0 0
70 0 1 0 1.3425782042951544 21.121167432105338 11.66935225059336 0 0 0
78 0 1 0 3.4115613151548536 19.898196776247907 11.706183013762239 0 0 0
79 0 1 0 2.766038497831638 21.141438006592843 11.72814383055076 0 0 0
99 0 1 0 7.0713939700802735 21.083520172658226 11.810412421145166 0 0 0
80 0 1 0 3.5039191807662844 22.348763202293714 11.701428650986212 0 0 0
151 0 1 0 7.051219144587347 23.516904734825616 12.070043687824535 0 0 0
143 0 1 0 4.8748545002334644 24.759919549395153 12.134371220482093 0 0 0
109 0 1 0 9.162729212294897 19.830773812857693 12.136655816111418 0 0 0
8043 0 1 0 0.5945119416487207 24.772783399470516 11.976283591683107 1 0 0
122 0 1 0 1.3498402915905412 23.56532845589685 11.828755059750371 0 0 0
131 0 1 0 2.791320768178807 23.555967963249305 11.790671465491013 0 0 0
124 0 1 0 1.2984092455222436 26.017214896057098 12.041352549831387 0 0 0
101 0 1 0 9.170137700093187 22.31896769653354 12.125627491469503 0 0 0
132 0 1 0 3.455907617354569 24.802306389272566 11.982646512229985 0 0 0
133 0 1 0 2.7111052415861323 26.039247290044358 12.108884278727267 0 0 0
100 0 1 0 7.76824170519097 22.31610649986772 11.99896357342808 0 0 0
89 0 1 0 4.836637710184864 19.897563446571166 11.690144202332418 0 0 0
90 0 1 0 5.609701042362434 21.092152037295854 11.783143278988684 0 0 0
81 0 1 0 4.961944800220912 22.311582507132346 11.772669178417678 0 0 0
98 0 1 0 7.739525640057653 19.82465197007328 11.839102910442492 0 0 0
142 0 1 0 5.6096201641868 23.57575669897359 11.92422376087497 0 0 0
77 0 1 0 2.7452521082651224 18.616587164703933 11.589546065908664 0 0 0
97 0 1 0 7.022916185352206 18.583775095122014 11.704055906578066 0 0 0
68 0 1 0 1.3305073770845774 18.636056138335636 11.502231149049244 0 0 0
126 0 1 0 1.290095854244775 28.430793426316356 12.277514835770246 0 0 0
88 0 1 0 5.58970897145002 18.611525796364333 11.706382650052248 0 0 0
152 0 1 0 7.719358281436213 24.748713422194633 12.320003080736466 0 0 0
8047 0 1 0 0.511786073453038 29.620897937488838 12.435238588113174 1 0 0
134 0 1 0 3.42494835172607 27.216222614366416 12.2736572749486 0 0 0
135 0 1 0 2.7461271959849958 28.443115435941177 12.399035164994539 0 0 0
144 0 1 0 5.575280737916137 25.99128820141893 12.22433731190596 0 0 0
136 0 1 0 3.4236026789881873 29.64440323300917 12.587263742555267 0 0 0
145 0 1 0 4.877792869771467 27.22244895867443 12.350884330569212 0 0 0
146 0 1 0 5.5782253529137575 28.415402656099303 12.506870797965753 0 0 0
153 0 1 0 7.033533902578608 25.94426835971217 12.33209954985645 0 0 0
163 0 1 0 9.147673578339655 24.716598217231784 12.426132571105585 0 0 0
154 0 1 0 7.736137008939174 27.15488577849503 12.52191181786345 0 0 0
165 0 1 0 9.155654159675183 27.17606069173565 12.579695758039728 0 0 0
128 0 1 0 1.2432238894108205 30.870724811350062 12.557577532724947 0 0 0
8049 0 1 0 0.5764874038353381 32.090056468831825 12.580622684303759 1 0 0
155 0 1 0 7.007304664884383 28.384788801368632 12.574004738575558 0 0 0
140 0 1 0 3.419923921337463 34.61718762826014 12.863127361277119 0 0 0
149 0 1 0 4.850673128404006 32.17299927796757 12.726162414976617 0 0 0
157 0 1 0 7.0147570529347005 30.901021229098475 12.826312346726251 0 0 0
182 0 1 0 1.2669259546711353 35.898755473003774 12.787472287225246 0 0 0
158 0 1 0 7.709894859761083 32.09568270738563 12.977898544404722 0 0 0
150 0 1 0 5.604471378936467 33.39617600593043 12.874848315342847 0 0 0
141 0 1 0 4.829947024104415 34.62870776562104 12.956179564167421 0 0 0
137 0 1 0 2.7274920847826203 30.830650573722178 12.655891689010796 0 0 0
202 0 1 0 5.518741552545897 35.86514827474192 13.193419833921755 0 0 0
8041 0 1 0 0.5744151821844039 34.64198961502289 12.705955001257033 1 0 0
130 0 1 0 1.278847947723796 33.346526131429805 12.683872044676853 0 0 0
138 0 1 0 3.4415780676501195 32.12628020179136 12.709210705744159 0 0 0
167 0 1 0 9.152941677539678 29.626260596440986 12.894779415744734 0 0 0
147 0 1 0 4.8471422586301 29.653837595588783 12.65935052308212 0 0 0
159 0 1 0 6.969955697749781 33.32044452042785 13.098521040891914 0 0 0
169 0 1 0 9.182850081197083 32.12148320582637 13.066250142916935 0 0 0
160 0 1 0 7.651411966557629 34.59034196413854 13.282188370673392 0 0 0
211 0 1 0 6.9758157496182305 35.83153484929935 13.401112253618924 0 0 0
139 0 1 0 2.6785534617345976 33.355931056477154 12.724843487825385 0 0 0
156 0 1 0 7.755130886169881 29.64942282893735 12.790646915246125 0 0 0
161 0 1 0 9.120920748118008 34.558478770621356 13.394040587225048 0 0 0
148 0 1 0 5.544772254553891 30.917908400800357 12.722475776990272 0 0 0
191 0 1 0 2.659714938345919 35.85995581263189 12.873229390564802 0 0 0
194 0 1 0 3.3707226608968495 39.56898947129155 13.194859848306915 0 0 0
195 0 1 0 2.6551089181484886 40.80187279011281 13.234774049840734 0 0 0
186 0 1 0 1.1941669946266271 40.82531868577208 13.279805103998257 0 0 0
8105 0 1 0 0.5194044714305374 39.60180083865582 13.2070958146268 1 0 0
193 0 1 0 2.661756538451191 38.2939858618043 13.043985140854275 0 0 0
184 0 1 0 1.2450331708402584 38.347917159812106 13.042626981023925 0 0 0
256 0 1 0 3.4201202436423963 54.405670555606356 13.09835180435407 0 0 0
246 0 1 0 1.2256253576126939 53.13247130245302 13.145024157448384 0 0 0
255 0 1 0 2.6497172649518963 53.15405183869323 13.021380498153578 0 0 0
205 0 1 0 4.7958469312840295 39.569968470429004 13.186469447431515 0 0 0
204 0 1 0 5.520708608529919 38.29462522063767 13.273899579016838 0 0 0
215 0 1 0 7.032233480584903 40.806697807994944 13.241997370265878 0 0 0
206 0 1 0 5.546583465540115 40.77997277919986 13.270982207089125 0 0 0
225 0 1 0 9.100008770929382 39.536376339661665 13.34775704800257 0 0 0
214 0 1 0 7.661835213357812 39.530172826230185 13.281686280720209 0 0 0
213 0 1 0 6.961453418688574 38.2915820840547 13.316926375198316 0 0 0
8165 0 1 0 0.5013249666666528 51.94330372280296 13.362460003172329 1 0 0
8167 0 1 0 0.5089161888221424 54.39717036640469 13.274415569802073 1 0 0
8107 0 1 0 0.4796273213579146 42.07677341410582 13.191102568104888 1 0 0
188 0 1 0 1.2337187009373884 43.2664611949263 13.093077401312305 0 0 0
198 0 1 0 3.3774125882858432 44.474374834247236 13.009772226235716 0 0 0
197 0 1 0 2.6860052860064436 43.23448818649042 13.139937712710697 0 0 0
199 0 1 0 2.6453526845157898 45.72690791699338 12.954761171720795 0 0 0
209 0 1 0 4.81974740409817 44.48963729495768 12.97280691046424 0 0 0
207 0 1 0 4.834057155750441 42.007025655179675 13.192641293288585 0 0 0
196 0 1 0 3.3685646917482415 42.03891593023161 13.250895892969016 0 0 0
8109 0 1 0 0.5129845833401373 44.5337908799383 13.136670093590133 1 0 0
190 0 1 0 1.2380682295853302 45.73387546289312 13.059286605893549 0 0 0
229 0 1 0 9.109432949551763 44.453645031822774 13.001488076658443 0 0 0
210 0 1 0 5.557290387401247 45.72132762377569 12.943010879654642 0 0 0
208 0 1 0 5.541242822174095 43.21045270837169 12.960048414164417 0 0 0
217 0 1 0 6.932675344183459 43.27607253417597 12.885647918304315 0 0 0
218 0 1 0 7.67144236986942 44.461122923837564 12.885866389697094 0 0 0
227 0 1 0 9.106759719622847 41.98951258720583 13.14777869182193 0 0 0
219 0 1 0 6.976183791637046 45.707500631463574 12.94272050095769 0 0 0
216 0 1 0 7.707619304890792 42.04721418956493 13.08929025549697 0 0 0
251 0 1 0 2.7030223347682116 48.198919564517716 13.112128359850805 0 0 0
8163 0 1 0 0.5307945699067625 49.45364492237651 13.382016819125056 1 0 0
263 0 1 0 4.810506159242332 49.4025245736626 12.94455089443511 0 0 0
200 0 1 0 3.3780494229900206 46.96676969574908 12.961247046390001 0 0 0
253 0 1 0 2.6618745647598105 50.67780092524684 13.025059221186272 0 0 0
252 0 1 0 3.3940984442435624 49.43138195890717 13.015443017008955 0 0 0
242 0 1 0 1.2636998833016369 48.252650454348554 13.104164920851321 0 0 0
8101 0 1 0 0.5992736184292928 46.99630172141505 13.044842628886464 1 0 0
244 0 1 0 1.2526324098435067 50.71706732829381 13.289080176434872 0 0 0
262 0 1 0 5.554516106816481 48.15605867334663 12.961974848160224 0 0 0
264 0 1 0 5.523183517779254 50.641871870285904 13.035028089652034 0 0 0
283 0 1 0 9.13241696201125 49.40776002383505 13.200581270617052 0 0 0
201 0 1 0 4.848286388064904 46.926821843446916 12.902281218953954 0 0 0
273 0 1 0 6.995421237325537 50.619373366347986 13.027728783224916 0 0 0
271 0 1 0 7.0025486372471395 48.23651456630467 12.916883897900725 0 0 0
220 0 1 0 7.681485281027045 46.94019570439031 13.035284361416966 0 0 0
221 0 1 0 9.113255239265493 46.9304162346023 13.11172525856472 0 0 0
272 0 1 0 7.695198405169719 49.39680696457832 13.128086039126174 0 0 0
276 0 1 0 7.715874283605604 54.34187890468128 13.138703356423623 0 0 0
267 0 1 0 4.856041187739766 54.42970666201403 13.087035242530236 0 0 0
285 0 1 0 9.148486744735807 51.878818640300366 13.274331067752867 0 0 0
287 0 1 0 9.108429514135079 54.343052122111054 13.296190932863276 0 0 0
274 0 1 0 7.687884768821346 51.848288456082926 13.176964358722184 0 0 0
265 0 1 0 4.800927705161416 51.89154699969995 13.00330622588666 0 0 0
275 0 1 0 6.989374416482944 53.113216970419046 13.117376876265897 0 0 0
266 0 1 0 5.559337628874655 53.14993790847181 12.98807288021448 0 0 0
254 0 1 0 3.350016297239995 51.91380827407423 12.958455930217239 0 0 0
192 0 1 0 3.393045577679231 37.07260705432792 12.988077997417207 0 0 0
8103 0 1 0 0.5547050784146864 37.13285750061477 12.890734337322755 1 0 0
203 0 1 0 4.833011174147072 37.09524555255306 13.259817991478718 0 0 0
223 0 1 0 9.102230458577875 37.07829908426074 13.54380050024853 0 0 0
212 0 1 0 7.688740971192206 37.081410520965015 13.394976950254918 0 0 0
362 0 1 0 1.2604331782527594 72.94088656535521 12.456411396262181 0 0 0
8221 0 1 0 0.552266256200067 71.6705637421584 12.584795134956524 1 0 0
371 0 1 0 2.7352280961161943 72.92232785298098 12.589019974469691 0 0 0
250 0 1 0 1.2137567164121055 58.162703636249915 13.3920200015403 0 0 0
332 0 1 0 7.6624826063761775 61.7933487426451 13.23323565502584 0 0 0
261 0 1 0 4.841293737507689 59.30876424769951 13.23974987610409 0 0 0
259 0 1 0 2.6717572029973593 58.12910554429983 13.336626253091486 0 0 0
347 0 1 0 9.089223722771903 66.74810069842471 13.125550688989204 0 0 0
281 0 1 0 9.096358295659583 59.283526838841105 13.137257644960298 0 0 0
258 0 1 0 3.341699879560613 56.89352529517296 13.350012623868182 0 0 0
280 0 1 0 7.720064833355587 59.30780124796663 13.112300594984301 0 0 0
279 0 1 0 6.954020870303404 58.07511150352845 13.169449766148356 0 0 0
278 0 1 0 7.722769617094947 56.855783753538226 13.224089978741956 0 0 0
8169 0 1 0 0.5015020917352786 56.919514955591666 13.474344059334634 1 0 0
270 0 1 0 5.533892291678665 58.12785406022631 13.29466827393016 0 0 0
269 0 1 0 4.807763961994681 56.859966322455044 13.34344427521218 0 0 0
304 0 1 0 1.2946098474282106 63.0641012858401 13.074259888067703 0 0 0
289 0 1 0 9.152962059728162 56.835161595041406 13.29498422901591 0 0 0
391 0 1 0 6.940720736929395 72.92653265302482 13.0679459709197 0 0 0
302 0 1 0 1.3228135645205017 60.601349450472696 13.283787176345013 0 0 0
331 0 1 0 6.963949634326849 60.5675158505803 13.19195555692579 0 0 0
343 0 1 0 9.109123493610918 61.77968525036565 13.185577800477551 0 0 0
8223 0 1 0 0.5939090641023109 61.808624403077566 13.150981127204652 1 0 0
322 0 1 0 5.557070927800848 60.49843731491574 13.262693196847101 0 0 0
260 0 1 0 3.4339415123207377 59.385308305574036 13.305021841345045 0 0 0
345 0 1 0 9.085148946734032 64.24444854940477 13.162265023011338 0 0 0
341 0 1 0 9.118968813319908 71.71471465424464 13.194949556670272 0 0 0
333 0 1 0 6.990921839945656 63.017636271440914 13.280683740638477 0 0 0
349 0 1 0 9.12581675735022 69.21851349713418 13.08589642004043 0 0 0
8225 0 1 0 0.5939157359717974 64.28177401366298 12.920950774146197 1 0 0
340 0 1 0 7.6716734080956 71.68905774880974 13.12514933426181 0 0 0
8161 0 1 0 0.5702469046884178 59.3812343595475 13.36811286472461 1 0 0
339 0 1 0 6.983467195737462 70.41922005580419 13.194470890583252 0 0 0
338 0 1 0 7.712880185395631 69.1902631166824 13.187297860248798 0 0 0
311 0 1 0 2.7518282096585023 60.60549109269467 13.33785361560602 0 0 0
336 0 1 0 7.629812002353866 66.76656008438151 13.225050706804469 0 0 0
334 0 1 0 7.679121081528475 64.32126102229117 13.195159650196356 0 0 0
321 0 1 0 4.789373729402887 71.70041377165568 13.098751980059578 0 0 0
330 0 1 0 5.5365496066454085 70.4520657787523 13.191800147969493 0 0 0
335 0 1 0 6.9178870055357455 65.53611172559636 13.29788709364436 0 0 0
337 0 1 0 6.984653226864835 68.01822687733242 13.28472478972501 0 0 0
313 0 1 0 2.7318822707129073 63.07592983210157 13.29661308389138 0 0 0
323 0 1 0 4.806698761918455 61.79283600418567 13.329760704400588 0 0 0
312 0 1 0 3.3937859050180372 61.830337276273184 13.367389243890562 0 0 0
8227 0 1 0 0.5314508559554199 66.7744743554886 12.823135005257171 1 0 0
324 0 1 0 5.530551646576183 62.95591749660196 13.358240449139043 0 0 0
382 0 1 0 5.530237524311784 72.92790418955614 13.002264988223377 0 0 0
326 0 1 0 5.531112530942958 65.54593775015415 13.36374377870878 0 0 0
308 0 1 0 1.2812167419061524 67.96990746291799 12.972486511003424 0 0 0
325 0 1 0 4.821091640474894 64.27919389137361 13.375965876385969 0 0 0
327 0 1 0 4.835158946964028 66.82735028417028 13.254338185117033 0 0 0
314 0 1 0 3.387632903308239 64.2887220139727 13.331486962933628 0 0 0
328 0 1 0 5.548523044022938 68.01874595222213 13.299968228815985 0 0 0
315 0 1 0 2.682964546943177 65.55713549406627 13.232961298588318 0 0 0
316 0 1 0 3.3986981980393987 66.77623752231666 13.200272385891585 0 0 0
306 0 1 0 1.268388444522869 65.54876444496425 12.945212087883675 0 0 0
248 0 1 0 1.2620867742337503 55.635933748213574 13.366802834339861 0 0 0
329 0 1 0 4.843134905913328 69.24744780371728 13.210920674959791 0 0 0
320 0 1 0 3.3800914262209854 71.6770118283679 12.903845847140017 0 0 0
318 0 1 0 3.384834718542763 69.22041309242621 13.134968870476328 0 0 0
8229 0 1 0 0.5159184562195177 69.22379406005827 12.821267321524735 1 0 0
317 0 1 0 2.7133620284316073 67.9891583541274 13.135381948661902 0 0 0
319 0 1 0 2.671155153539857 70.40822414533885 12.999705851735948 0 0 0
277 0 1 0 7.020410980129591 55.60918489752907 13.200746514394993 0 0 0
310 0 1 0 1.2344247748297992 70.46117496457727 12.76557601319875 0 0 0
268 0 1 0 5.581938137542603 55.66164444116772 13.208268961854344 0 0 0
257 0 1 0 2.6642367467087467 55.59171114914932 13.320936850596523 0 0 0
8283 0 1 0 0.544929840292925 74.14747754869184 12.343262228616773 1 0 0
433 0 1 0 2.6637769090441665 87.68530507861598 12.3776550856042 0 0 0
452 0 1 0 7.637773558265822 86.54585751832535 12.440222260258308 0 0 0
8345 0 1 0 0.5284843378117521 88.95655591569277 12.067351122493069 1 0 0
8289 0 1 0 0.4926721105909391 81.5953457490513 12.512623551132 1 0 0
446 0 1 0 5.534745074443065 90.22256234303563 12.333841374298151 0 0 0
422 0 1 0 1.212316592979657 85.2425015576443 12.5478366489514 0 0 0
447 0 1 0 4.842700503309153 91.47478073166302 12.272054509900562 0 0 0
445 0 1 0 4.823033188059757 89.01809072668256 12.270572563309589 0 0 0
8281 0 1 0 0.5177743127987396 83.96506538579095 12.491195662244866 1 0 0
8343 0 1 0 0.5531820470831341 86.54005726748741 12.441336584352676 1 0 0
436 0 1 0 3.347954906527835 91.44573123969082 12.147620164605796 0 0 0
373 0 1 0 2.703661791831016 75.37882171085299 12.525658636910693 0 0 0
456 0 1 0 7.715852617512929 91.4639716326233 12.252581488533556 0 0 0
467 0 1 0 9.10796272345881 91.45163122604606 12.070742048864913 0 0 0
8347 0 1 0 0.5686926747220142 91.45240682402913 11.84900507141109 1 0 0
426 0 1 0 1.215074308327358 90.1666541237144 11.965599130209583 0 0 0
435 0 1 0 2.671704721684526 90.17543441241791 12.158568233544404 0 0 0
454 0 1 0 7.706747803582206 88.96821510513828 12.32252076269774 0 0 0
453 0 1 0 6.937695719684652 87.76639569404736 12.460383093431753 0 0 0
434 0 1 0 3.3922790673312733 88.98468677673716 12.335208135846525 0 0 0
8285 0 1 0 0.5344716564809043 76.61780109004097 12.28665491301959 1 0 0
455 0 1 0 6.969989898020449 90.23316999334116 12.303513134029165 0 0 0
465 0 1 0 9.112214210881387 88.94982763947883 12.307161262634908 0 0 0
424 0 1 0 1.2526132936842937 87.7286431501486 12.35390472102358 0 0 0
444 0 1 0 5.4957610729525435 87.75068916889967 12.395586492771267 0 0 0
463 0 1 0 9.033058516631758 86.48955196297112 12.530780321556929 0 0 0
366 0 1 0 1.2313583750027712 77.86788149991406 12.395746851043096 0 0 0
432 0 1 0 3.4135874108717283 86.47487692519579 12.425881300972684 0 0 0
364 0 1 0 1.2541973712691978 75.40187495827215 12.405465615711064 0 0 0
443 0 1 0 4.811664607807682 86.53416675019965 12.456688382251762 0 0 0
451 0 1 0 6.910139708665589 85.30457899119148 12.523409035144095 0 0 0
431 0 1 0 2.648138115077137 85.23181577133636 12.522438433251303 0 0 0
442 0 1 0 5.531949680465768 85.33135048256418 12.58484979856432 0 0 0
8287 0 1 0 0.5405883377594185 79.11513283240569 12.3945866476672 1 0 0
368 0 1 0 1.2446317758022065 80.33379137172385 12.46650510965256 0 0 0
375 0 1 0 2.6325822975048947 77.84998596666362 12.568507128256146 0 0 0
405 0 1 0 9.162250260285804 76.59892066168979 12.9564959757859 0 0 0
394 0 1 0 7.652467506669746 76.6274420113931 12.969304542553228 0 0 0
384 0 1 0 5.53191840285995 75.43697931103883 12.806782471676993 0 0 0
393 0 1 0 6.956632142182858 75.37488053639339 12.942929766486625 0 0 0
396 0 1 0 7.690447234870642 79.08613119026904 12.941408199518618 0 0 0
407 0 1 0 9.110674039068995 79.06927043197028 12.857332963991933 0 0 0
395 0 1 0 6.960796449568036 77.87794821456012 12.826601852452303 0 0 0
381 0 1 0 4.805936847603164 84.07666364840227 12.703367295490473 0 0 0
409 0 1 0 9.087196499333398 81.52892134939329 12.805178899579335 0 0 0
385 0 1 0 4.814012054853539 76.65131088828255 12.770204088822245 0 0 0
386 0 1 0 5.57210163218859 77.88665216210687 12.816311737135596 0 0 0
400 0 1 0 7.618215022800856 84.02912257419928 12.659221628072782 0 0 0
380 0 1 0 3.374251299221696 84.04948496577089 12.660379464596437 0 0 0
403 0 1 0 9.070911820694104 74.14957317486817 13.018953579123012 0 0 0
383 0 1 0 4.839880505818406 74.16642508588977 12.810706949548754 0 0 0
377 0 1 0 2.6730243249156067 80.3610701763809 12.635651630518979 0 0 0
392 0 1 0 7.6521987968901755 74.16581551057666 13.025887712613109 0 0 0
387 0 1 0 4.803559145791592 79.10524180018948 12.902920768645881 0 0 0
398 0 1 0 7.632375113758337 81.55832832399881 12.814225118723265 0 0 0
397 0 1 0 6.939640104466987 80.31898824658437 12.919837725800685 0 0 0
399 0 1 0 6.893011157061231 82.81632034808943 12.80090778698814 0 0 0
374 0 1 0 3.384600968105766 76.62931980634767 12.672773765259034 0 0 0
379 0 1 0 2.6833680027166316 82.81616054450645 12.827900796661785 0 0 0
389 0 1 0 4.750021301103237 81.54896816456227 12.85979863344964 0 0 0
376 0 1 0 3.388694173669935 79.12895319852184 12.734875904232155 0 0 0
388 0 1 0 5.492451950865537 80.34070084082086 12.960097438482425 0 0 0
378 0 1 0 3.3262494413903747 81.56339406720524 12.86313575866157 0 0 0
370 0 1 0 1.2612386965164621 82.78349332445642 12.658925372030097 0 0 0
390 0 1 0 5.442708742133351 82.78935316973029 12.808237936060632 0 0 0
401 0 1 0 9.029288951180803 83.99297608541319 12.63170247965271 0 0 0
372 0 1 0 3.434347380624586 74.12723088331755 12.630030827006333 0 0 0
428 0 1 0 1.2552035821912961 92.70345053122311 11.862493593147319 0 0 0
438 0 1 0 3.414858281451651 93.92370904723468 12.030634864564732 0 0 0
449 0 1 0 4.791503226528153 93.90058898361482 12.0502019651732 0 0 0
439 0 1 0 2.672601739905891 95.15682844418494 11.87648499800801 0 0 0
430 0 1 0 1.2308027873095775 95.17207506218669 11.800622475765486 0 0 0
440 0 1 0 3.393634820664535 96.40538406440297 11.80245337678677 0 0 0
8349 0 1 0 0.5480534250570995 93.92505646273091 11.776755868799961 1 0 0
8341 0 1 0 0.5179524966946651 96.43952505651123 11.67610322690707 1 0 0
571 0 1 0 6.895071646738795 109.9769285549371 10.523170749014223 0 0 0
441 0 1 0 4.832194384575927 96.36913258455122 11.884941727470984 0 0 0
521 0 1 0 9.030488608645731 108.63891144048736 10.558151616769855 0 0 0
458 0 1 0 7.676098616706915 93.93863382278285 12.100854753346443 0 0 0
469 0 1 0 9.103636014845755 93.873855825501 11.906956719259346 0 0 0
459 0 1 0 6.94739003534353 95.13763337178152 11.913162677632831 0 0 0
450 0 1 0 5.478427754124315 95.14644961590072 11.9204526837739 0 0 0
461 0 1 0 9.069236900137021 96.3926892316035 11.82459987031272 0 0 0
460 0 1 0 7.635464027023761 96.35815085551654 11.769836844579478 0 0 0
510 0 1 0 5.50349507083258 107.45814792490974 10.927328216665357 0 0 0
503 0 1 0 4.799317361381759 98.89334552755233 11.61861781355486 0 0 0
492 0 1 0 3.3889806519027483 98.87676208902309 11.58109819788919 0 0 0
505 0 1 0 4.738019470757634 101.29562411694204 11.211620793807358 0 0 0
494 0 1 0 3.310451476212702 101.32432632247145 11.249231551853555 0 0 0
493 0 1 0 2.616212938315558 100.0821458760243 11.433645931407199 0 0 0
482 0 1 0 1.207198069028741 97.6324818851629 11.610107098365447 0 0 0
491 0 1 0 2.6792724470527274 97.62710275368374 11.735786293242027 0 0 0
484 0 1 0 1.1799807251600145 100.06660472441523 11.37135097032217 0 0 0
8403 0 1 0 0.4964968624129334 98.83815346553871 11.33528743587362 1 0 0
8405 0 1 0 0.46611671614023686 101.34951923510947 11.20185402990822 1 0 0
514 0 1 0 7.6070748147851655 101.34903350408918 11.395845183316975 0 0 0
525 0 1 0 9.030150488510307 101.36128864934764 11.476841924382276 0 0 0
523 0 1 0 9.078462733735668 98.90176943512151 11.654184962797949 0 0 0
511 0 1 0 6.956024717498045 97.6360317221092 11.748037688392545 0 0 0
502 0 1 0 5.5178748260614565 97.62349700938012 11.78141856164637 0 0 0
512 0 1 0 7.661946054636592 98.9022793743862 11.672581792005879 0 0 0
504 0 1 0 5.539895714199855 100.11052532200192 11.46007878520755 0 0 0
513 0 1 0 6.891494864905968 100.13445471632447 11.582738261792088 0 0 0
507 0 1 0 4.74254705176372 103.76811016727511 11.092021148447087 0 0 0
495 0 1 0 2.6259046971071816 102.54122652286645 11.22600994630605 0 0 0
496 0 1 0 3.3242541345138528 103.770616889035 11.04707130081456 0 0 0
497 0 1 0 2.673028300842882 105.00828229638867 10.86423024985524 0 0 0
486 0 1 0 1.196442908032569 102.55456848860868 11.202321403348478 0 0 0
488 0 1 0 1.2646020141178633 105.00979409233427 10.804138418008499 0 0 0
8407 0 1 0 0.5112875007448191 103.79014852772717 10.960542287224529 1 0 0
509 0 1 0 4.810860236197563 106.21381234261972 10.95265572468517 0 0 0
498 0 1 0 3.394806714879444 106.23584044032685 10.806730844093602 0 0 0
8409 0 1 0 0.5542786688238506 106.26770974240522 10.604183441076536 1 0 0
516 0 1 0 7.6485922275279 103.83204693609989 11.13303951680741 0 0 0
506 0 1 0 5.445465526830616 102.57346031025202 11.096872625206469 0 0 0
515 0 1 0 6.880083462463361 102.55341596990226 11.206356041759722 0 0 0
508 0 1 0 5.50621554486188 105.0191478728591 11.063651641384523 0 0 0
517 0 1 0 6.927148221920002 105.05622423255151 11.089706664541259 0 0 0
527 0 1 0 9.071386153885467 103.80789238719755 11.171214771413098 0 0 0
529 0 1 0 9.075407462284526 106.19810306218719 10.727749284911106 0 0 0
518 0 1 0 7.648120257197346 106.25278021826186 10.88225507169002 0 0 0
501 0 1 0 4.780511410794953 108.69595435323559 10.802678471805061 0 0 0
500 0 1 0 3.3318679864631555 108.72120480001408 10.797635314588112 0 0 0
499 0 1 0 2.6796619871416465 107.50147272007256 10.797253186177207 0 0 0
490 0 1 0 1.2712340266527848 107.47485420803302 10.585409099705583 0 0 0
8401 0 1 0 0.560180615239198 108.73806473131008 10.513620094078913 1 0 0
551 0 1 0 2.635291689950449 109.9839875118646 10.684338235704807 0 0 0
542 0 1 0 1.2051769365959009 109.98038657554342 10.533527603034829 0 0 0
519 0 1 0 6.922871381465062 107.4513654926147 10.838517901906023 0 0 0
520 0 1 0 7.602964787664847 108.68313183700162 10.562801508246805 0 0 0
562 0 1 0 5.463306009582713 109.89419225680679 10.545212955843425 0 0 0
457 0 1 0 6.983720088684743 92.69871722542698 12.194241729339069 0 0 0
448 0 1 0 5.525818561338455 92.7263260677854 12.2071365638133 0 0 0
437 0 1 0 2.6692785103901864 92.6959095598583 11.95496878468666 0 0 0
583 0 1 0 9.075934209318243 111.13050537675342 10.432383804702491 0 0 0
544 0 1 0 1.2134447190632103 112.44684292717665 10.22337741623207 0 0 0
553 0 1 0 2.6660457245876854 112.4005840312049 10.41025174015907 0 0 0
555 0 1 0 2.6362013610014245 114.86547077431433 10.17017684834063 0 0 0
554 0 1 0 3.368192447874946 113.60860179638847 10.306582554872941 0 0 0
8465 0 1 0 0.49875585653490356 113.66801096998385 9.954948155759242 1 0 0
546 0 1 0 1.2565826782610179 114.87078065687159 10.033445047011913 0 0 0
565 0 1 0 4.796301250289378 113.65326812458251 10.398681186320031 0 0 0
645 0 1 0 9.077246768418815 126.0863591612507 10.471288351172227 0 0 0
636 0 1 0 7.637758503457218 128.42060158511748 10.283224164323956 0 0 0
647 0 1 0 9.085998350313416 128.54405626807144 10.452180395642811 0 0 0
574 0 1 0 7.619422495448915 113.68883851024358 10.461778613009166 0 0 0