LAMMPS (4 Feb 2025)
OMP_NUM_THREADS environment is not set. Defaulting to 1 thread. (src/comm.cpp:99)
  using 1 OpenMP thread(s) per MPI task
# LAMMPS script for continuing NVT simulation

atom_modify map yes
newton      on

read_restart nvt_prod.restart.880000
Reading restart file ...
  restart file = 4 Feb 2025, LAMMPS = 4 Feb 2025
  restoring atom style full from restart
  orthogonal box = (0 0 0) to (153.931 148.12017 151.07317)
  16 by 8 by 8 MPI processor grid
  pair style symmetrix/mace stores no restart info
  11640 atoms
Finding 1-2 1-3 1-4 neighbors ...
  special bond factors lj:    0        0        0       
  special bond factors coul:  0        0        0       
     0 = max # of 1-2 neighbors
     0 = max # of 1-3 neighbors
     0 = max # of 1-4 neighbors
     1 = max # of special neighbors
  special bonds CPU = 4.401 seconds
  read_restart CPU = 4.548 seconds

pair_style  symmetrix/mace
pair_coeff  * * ../../../00-common/models/ch2o-dens-inv_swa-1-6-8.json C H O
Loading MACE model from '../../../00-common/models/ch2o-dens-inv_swa-1-6-8.json' ... success
  mapping LAMMPS type 1 (C) to MACE type 1
  mapping LAMMPS type 2 (H) to MACE type 0
  mapping LAMMPS type 3 (O) to MACE type 2

group graphene type 1
8640 atoms in group graphene
group H2O type 2 3
3000 atoms in group H2O

thermo 1000

######### NVT production for 80 ps #############

dump DUMP1 all atom 100 nvt_prod_11.lammpstrj
timestep 0.001
fix NVT1 graphene nvt temp 300 300 0.1
Resetting global fix info from restart file:
  fix style: nvt, fix ID: NVT1
fix NVT2 H2O nvt temp 300 300 0.1
Resetting global fix info from restart file:
  fix style: nvt, fix ID: NVT2
run 80000
All restart file global fix info was re-assigned
Neighbor list info ...
  update: every = 1 steps, delay = 0 steps, check = yes
  max neighbors/atom: 2000, page size: 100000
  master list distance cutoff = 8
  ghost atom cutoff = 8
  binsize = 4, bins = 39 38 38
  1 neighbor lists, perpetual/occasional/extra = 1 0 0
  (1) pair symmetrix/mace, perpetual
      attributes: full, newton on
      pair build: full/bin
      stencil: full/bin/3d
      bin: standard
Per MPI rank memory allocation (min/avg/max) = 5.921 | 6.181 | 8.042 Mbytes
   Step          Temp          E_pair         E_mol          TotEng         Press     
    880000   299.6746      -1809930.5      0             -1809479.7      62.327927    
    881000   298.33092     -1809929.8      0             -1809481        84.699786    
    882000   299.58474     -1809925.7      0             -1809475        85.635016    
    883000   294.17731     -1809931.7      0             -1809489.1      88.304012    
    884000   299.84063     -1809929.2      0             -1809478.1      105.99803    
    885000   297.49253     -1809925.7      0             -1809478.1      67.520673    
    886000   296.75612     -1809928.1      0             -1809481.6      76.316932    
    887000   300.97547     -1809929.1      0             -1809476.3      41.804718    
    888000   299.16606     -1809924.8      0             -1809474.7      18.065796    
    889000   299.76943     -1809933.1      0             -1809482.1      49.705644    
    890000   299.20589     -1809925.6      0             -1809475.4     -30.390549    
    891000   303.55267     -1809931.9      0             -1809475.2      13.941746    
    892000   299.62813     -1809930        0             -1809479.2      31.09618     
    893000   301.19388     -1809930.5      0             -1809477.3      72.15774     
    894000   302.07933     -1809925.8      0             -1809471.4      62.764934    
    895000   298.13251     -1809934.8      0             -1809486.3      145.6157     
    896000   298.11327     -1809927.9      0             -1809479.4      114.59742    
    897000   298.80733     -1809928.2      0             -1809478.7      69.389527    
    898000   301.25665     -1809928.7      0             -1809475.5      11.167524    
    899000   298.21876     -1809929.6      0             -1809480.9      16.827134    
    900000   297.34278     -1809929.7      0             -1809482.3      2.4567616    
    901000   303.26481     -1809932.2      0             -1809475.9      36.62382     
    902000   298.35494     -1809932.3      0             -1809483.5      84.225546    
    903000   300.8319      -1809931.6      0             -1809479        72.371363    
    904000   303.55792     -1809928.2      0             -1809471.5      86.209193    
    905000   299.34522     -1809934.7      0             -1809484.3      92.021147    
    906000   299.64616     -1809931        0             -1809480.2      101.56792    
    907000   298.30065     -1809923.6      0             -1809474.8      76.762523    
    908000   300.83158     -1809926.8      0             -1809474.2      109.03093    
    909000   301.47791     -1809929.5      0             -1809475.9      38.037755    
    910000   299.9541      -1809931.7      0             -1809480.4      48.506381    
    911000   304.5247      -1809931.3      0             -1809473.1      50.659275    
    912000   300.90144     -1809929.9      0             -1809477.2      18.617109    
    913000   299.33877     -1809929.1      0             -1809478.8      37.783534    
    914000   299.65413     -1809935.4      0             -1809484.6      39.031103    
    915000   297.40398     -1809930        0             -1809482.6      49.641729    
    916000   300.87263     -1809928        0             -1809475.4      32.655813    
    917000   298.40535     -1809930.2      0             -1809481.3      78.940192    
    918000   300.78573     -1809923.3      0             -1809470.8      80.542214    
    919000   298.57571     -1809931.7      0             -1809482.5      75.833369    
    920000   294.7197      -1809927.3      0             -1809483.9      81.449654    
    921000   299.02997     -1809927.1      0             -1809477.2      72.644556    
    922000   303.59874     -1809930.1      0             -1809473.3      70.223483    
    923000   298.59337     -1809929.5      0             -1809480.3      102.08403    
    924000   300.54457     -1809931.5      0             -1809479.4      89.665394    
    925000   300.62751     -1809928.3      0             -1809476        97.198182    
    926000   299.63821     -1809928.5      0             -1809477.8      74.29297     
    927000   296.79535     -1809927.9      0             -1809481.4      57.478268    
    928000   299.37669     -1809931.9      0             -1809481.5      52.208446    
    929000   301.67124     -1809930.3      0             -1809476.5      60.805099    
    930000   300.91225     -1809926        0             -1809473.3      69.473025    
    931000   297.5539      -1809925.6      0             -1809478        52.507989    
    932000   300.08039     -1809929.2      0             -1809477.7      28.279682    
    933000   300.24679     -1809926.2      0             -1809474.5      46.404416    
    934000   297.23792     -1809921.5      0             -1809474.4      92.127146    
    935000   298.18413     -1809929.4      0             -1809480.8      96.970692    
    936000   301.28217     -1809928        0             -1809474.7      84.342144    
    937000   297.70209     -1809926.5      0             -1809478.6      46.78887     
    938000   300.68955     -1809927.7      0             -1809475.3      28.904757    
    939000   302.56064     -1809923.8      0             -1809468.6      43.468531    
    940000   297.75533     -1809930.7      0             -1809482.7      63.731009    
    941000   297.2258      -1809924.8      0             -1809477.6      65.898624    
    942000   299.43669     -1809928.3      0             -1809477.8      69.354128    
    943000   300.4096      -1809926.9      0             -1809475        66.796085    
    944000   297.50785     -1809925.2      0             -1809477.6      89.573944    
    945000   300.82239     -1809927.8      0             -1809475.2      43.926237    
    946000   301.67847     -1809927.4      0             -1809473.6      48.839277    
    947000   297.2971      -1809931.2      0             -1809484        43.880729    
    948000   299.1237      -1809929.2      0             -1809479.1      77.05738     
    949000   300.89225     -1809925.9      0             -1809473.2      63.960782    
    950000   300.43601     -1809929.6      0             -1809477.6      80.671164    
    951000   302.49133     -1809932.2      0             -1809477.1      108.08157    
    952000   300.0316      -1809932.7      0             -1809481.3      77.422006    
    953000   300.70894     -1809931.7      0             -1809479.3      18.900287    
    954000   304.02886     -1809931.9      0             -1809474.5     -6.8892877    
    955000   301.69661     -1809937.2      0             -1809483.3     -9.2952134    
    956000   300.303       -1809929.9      0             -1809478.1      15.96525     
    957000   299.69376     -1809933.4      0             -1809482.5      65.203411    
    958000   299.59067     -1809917.5      0             -1809466.8      104.90321    
    959000   302.90838     -1809928.8      0             -1809473.1      82.232711    
    960000   297.01874     -1809928.6      0             -1809481.7      60.867365    
Loop time of 58001.4 on 1024 procs for 80000 steps with 11640 atoms

Performance: 0.119 ns/day, 201.394 hours/ns, 1.379 timesteps/s, 16.055 katom-step/s
100.0% CPU use with 1024 MPI tasks x 1 OpenMP threads

MPI task timing breakdown:
Section |  min time  |  avg time  |  max time  |%varavg| %total
---------------------------------------------------------------
Pair    | 1330.9     | 5505.4     | 17392      |5117.2 |  9.49
Bond    | 0.0051127  | 0.0077619  | 0.014718   |   1.8 |  0.00
Neigh   | 0.060043   | 0.14361    | 0.77687    |  35.4 |  0.00
Comm    | 27.069     | 1908.5     | 6651.6     |3043.5 |  3.29
Output  | 0.9051     | 5.2606     | 10.375     | 123.9 |  0.01
Modify  | 35745      | 50574      | 56581      |2075.3 | 87.19
Other   |            | 7.896      |            |       |  0.01

Nlocal:        11.3672 ave         293 max           0 min
Histogram: 882 10 107 11 4 5 2 0 1 2
Nghost:        99.9004 ave        1533 max           0 min
Histogram: 765 102 116 11 8 6 8 5 0 3
Neighs:              0 ave           0 max           0 min
Histogram: 1024 0 0 0 0 0 0 0 0 0
FullNghs:      1227.55 ave       55766 max           0 min
Histogram: 946 53 6 9 4 2 1 0 2 1

Total # of neighbors = 1257008
Ave neighs/atom = 107.99038
Ave special neighs/atom = 0
Neighbor list builds = 3650
Dangerous builds = 0

write_restart nvt_prod.restart.*
System init for write_restart ...
write_data nvt_prod_final.lammps-data
System init for write_data ...

Total wall time: 16:07:03
