LAMMPS data file via write_data, version 4 Feb 2025, timestep = 960000, units = metal

11640 atoms
3 atom types

0 153.930996 xlo xhi
0 148.12016996204537 ylo yhi
0 151.07316997686289 zlo zhi

Masses

1 12.01099999691024
2 1.007999999740698
3 15.99899999588435

Atoms # full

6155 0 1 0 5.031444715282829 1.9193365393479673 18.26220900730205 7 -1 17
6150 0 1 0 4.325130872258319 0.6969528931609887 18.099005026217323 7 -1 17
6154 0 1 0 4.357514187321161 3.227291933428781 18.345301235883877 7 -1 17
6153 0 1 0 2.935863114502538 3.1873407243758036 18.351793403507962 7 -1 17
6149 0 1 0 2.8997352372946974 0.7151789152204097 18.258870078892485 7 -1 17
5916 0 1 0 2.2261102435633697 1.9786333052227807 18.255416214850214 7 -1 17
6159 0 1 0 5.041426668148255 4.443831855525232 18.505802308816527 7 -1 17
5920 0 1 0 2.195076826129363 4.40786626032405 18.372467252850047 7 -1 17
6156 0 1 0 6.480922272639134 1.9437890462229588 18.293978358286598 7 -1 17
6389 0 1 0 7.248665619263266 0.7449733019101172 18.202876348443063 7 -1 17
6393 0 1 0 7.187208749695646 3.170055712989434 18.424962482868228 7 -1 17
6395 0 1 0 9.364671052416224 1.9169288225749828 18.516183674961244 7 -1 17
6390 0 1 0 8.618697733057576 0.694629192301266 18.274519294504948 7 -1 17
6394 0 1 0 8.594971972206517 3.1580187909672515 18.475467481154855 7 -1 17
6160 0 1 0 6.476265337693019 4.42965617080875 18.57438884845189 7 -1 17
6399 0 1 0 9.3743595950713 4.429629505166426 18.62817923868414 7 -1 17
5924 0 1 0 2.2118473657952897 6.904328547951572 18.419576870620368 7 -1 17
6158 0 1 0 4.3057446547548395 5.692185186323921 18.52795347164292 7 -1 17
6163 0 1 0 5.070227839116473 6.896165994636766 18.574683470493436 7 -1 17
6162 0 1 0 4.344266268932245 8.150144947896841 18.536287886355012 7 -1 17
6157 0 1 0 2.908887621548083 5.643937196541894 18.42921071848186 7 -1 17
6161 0 1 0 2.922920471614961 8.128151500195463 18.49156173693238 7 -1 17
6164 0 1 0 6.485947464288874 6.954994956708435 18.58169851251498 7 -1 17
6397 0 1 0 7.197182750390012 5.662480385275691 18.615930260357047 7 -1 17
6401 0 1 0 7.197748732801419 8.188095056244162 18.687682077367306 7 -1 17
6403 0 1 0 9.354916329870814 6.892967654881653 18.785370783903577 7 -1 17
6398 0 1 0 8.653199706898143 5.657509779391479 18.692079326336053 7 -1 17
5910 0 1 0 0.0897251044539788 0.7291105373114734 18.077747520463 7 -1 17
5928 0 1 0 2.1585266187662606 9.368395099368525 18.384360940534602 7 -1 17
6167 0 1 0 5.010915118094927 9.402968125751928 18.703352024916203 7 -1 17
6171 0 1 0 5.057638453602592 11.875403649732256 18.5877760607861 7 -1 17
6166 0 1 0 4.285915049358206 10.662743357909761 18.60015235841457 7 -1 17
6170 0 1 0 4.342759801089501 13.136135543178254 18.37638768414588 7 -1 17
6165 0 1 0 2.91121607450366 10.607371113709002 18.368815185954308 7 -1 17
6169 0 1 0 2.9705318129344187 13.090320754380198 18.22526233712484 7 -1 17
5932 0 1 0 2.240178829576879 11.861985057222755 18.217381741449138 7 -1 17
6168 0 1 0 6.442423263164015 9.453568890891887 18.70154860694951 7 -1 17
6172 0 1 0 6.446167539073586 11.882549151377601 18.66753124233742 7 -1 17
6405 0 1 0 7.208782904510853 10.657517164779794 18.79072456537766 7 -1 17
6409 0 1 0 7.212948455084597 13.105028847031864 18.647843333805298 7 -1 17
5914 0 1 0 0.038775984152522945 3.125268707411768 18.251147902095486 7 -1 17
6410 0 1 0 8.65116508511124 13.003415191380084 18.7557825823926 7 -1 17
5918 0 1 0 0.00834365756967828 5.635450022691408 18.281601489441503 7 -1 17
5922 0 1 0 0.08119797263320509 8.082148488309889 18.07362220605756 7 -1 17
6177 0 1 0 2.9500819727660077 17.988254925453862 17.99875878453827 7 -1 17
6178 0 1 0 4.4149288971808724 18.019379677186727 18.13139974915799 7 -1 17
5940 0 1 0 2.2025778370137234 16.7760131127984 17.974535299988503 7 -1 17
5936 0 1 0 2.236475604922812 14.324385379542912 18.02131871689837 7 -1 17
6174 0 1 0 4.356180492950978 15.564112010635931 18.216242991795827 7 -1 17
6175 0 1 0 5.079282873006909 14.354635205267702 18.30973662234762 7 -1 17
6179 0 1 0 5.086999818408137 16.762414338033686 18.175283164417507 7 -1 17
6173 0 1 0 2.930850806643619 15.558402728404726 18.11740041404087 7 -1 17
6417 0 1 0 7.239733811322901 17.992791034890004 18.250003558802756 7 -1 17
6415 0 1 0 9.306691421027791 14.306049806020022 18.776229420263334 7 -1 17
6419 0 1 0 9.322882734129498 16.795761260673643 18.535073308771675 7 -1 17
6413 0 1 0 7.2019713179292415 15.601779689920994 18.54311758710337 7 -1 17
6418 0 1 0 8.641547112282996 18.008321824995537 18.417623422158456 7 -1 17
6180 0 1 0 6.516169061406467 16.814255851229493 18.283342802705494 7 -1 17
6176 0 1 0 6.503471748198682 14.360675694154207 18.514405381051887 7 -1 17
6414 0 1 0 8.591632431141331 15.543051155464239 18.64906371032363 7 -1 17
5915 0 1 0 0.8256716793547924 1.9318786610883334 18.203122255420624 7 -1 17
5927 0 1 0 0.7794740909059676 9.358725307342038 18.15758982846917 7 -1 17
5939 0 1 0 0.7984969866226573 16.77351511582683 17.791549893552265 7 -1 17
5923 0 1 0 0.7808520305881881 6.864492099294924 18.283033676742306 7 -1 17
5931 0 1 0 0.7958399201149939 11.890111825729537 18.00407767304744 7 -1 17
5935 0 1 0 0.8019085410045028 14.305544573839452 17.852435366079288 7 -1 17
5919 0 1 0 0.7705584471235396 4.433579525478445 18.311053061108154 7 -1 17
5930 0 1 0 0.06910827403410413 13.088071503097408 17.83166352127162 7 -1 17
5934 0 1 0 0.11050714349430779 15.519708503091286 17.65748001777497 7 -1 17
5938 0 1 0 0.0923979957720657 18.007433438029235 17.790952690365884 7 -1 17
5926 0 1 0 0.03732333262016374 10.625554701416107 17.980963965824827 7 -1 17
6407 0 1 0 9.335854133645098 9.341916794604401 19.055179099417675 7 -1 17
6402 0 1 0 8.589645897403125 8.089987651150631 18.88939676727608 7 -1 17
6406 0 1 0 8.628095720280468 10.580077113220765 18.982725277460414 7 -1 17
6411 0 1 0 9.38402605848542 11.807237558481575 19.005976539633703 7 -1 17
5944 0 1 0 2.261589620987402 19.207935903525925 17.942798481422145 7 -1 17
6187 0 1 0 5.11647092617142 21.713325598801138 18.281188574107823 7 -1 17
6183 0 1 0 5.0917204259443585 19.225930981815655 18.228030114959946 7 -1 17
6182 0 1 0 4.370342263292928 20.461077400345186 18.243228615066958 7 -1 17
6181 0 1 0 2.9275731152641966 20.418592399782565 18.091000251565244 7 -1 17
5948 0 1 0 2.2717851561039204 21.718870554283065 18.009636113461564 7 -1 17
6186 0 1 0 4.432112979529379 22.96797486925972 18.330105476566434 7 -1 17
5959 0 1 0 0.8674047582759123 29.176103673183945 17.862961646257723 7 -1 17
6451 0 1 0 9.420988087151457 36.617874760621724 18.318227865528563 7 -1 17
6184 0 1 0 6.525567985795705 19.243843692906676 18.285362480143036 7 -1 17
6188 0 1 0 6.499953416546004 21.699173223363676 18.286474119594548 7 -1 17
6421 0 1 0 7.222962384201521 20.460664877160887 18.24216173538636 7 -1 17
6422 0 1 0 8.693712461890023 20.495856864991847 18.28298778224803 7 -1 17
6423 0 1 0 9.37658286033602 19.274058653387367 18.40722567045267 7 -1 17
6427 0 1 0 9.39903359186858 21.712099402945366 18.468727342074192 7 -1 17
6426 0 1 0 8.726605435901174 22.944858363750267 18.35742301893954 7 -1 17
5956 0 1 0 2.324166605801393 26.736991507488757 18.185070408970837 7 -1 17
6191 0 1 0 5.171137306284862 24.183617962803137 18.36485662527097 7 -1 17
6195 0 1 0 5.242645277927017 26.659254793412188 18.378976604839128 7 -1 17
6190 0 1 0 4.476419911761593 25.416110034909643 18.375274471303893 7 -1 17
6189 0 1 0 3.0302995455169404 25.477135760652054 18.141029920822806 7 -1 17
6185 0 1 0 3.017733212077981 22.957529660993345 18.26645927555188 7 -1 17
5952 0 1 0 2.3039318535801216 24.20218578985538 18.170372723338073 7 -1 17
6192 0 1 0 6.601093544371538 24.177254243470433 18.22736777699189 7 -1 17
6196 0 1 0 6.640030701219721 26.671989332014043 18.345475021894504 7 -1 17
6429 0 1 0 7.3329516341630105 25.417324747940796 18.227083502720824 7 -1 17
6425 0 1 0 7.273864898377177 22.925714460865848 18.265200244175286 7 -1 17
6430 0 1 0 8.727656520416053 25.43035928306337 18.312570773617256 7 -1 17
6431 0 1 0 9.413940592816681 24.200400464931093 18.359204929028405 7 -1 17
6435 0 1 0 9.410505133348964 26.665122030409435 18.479178067778527 7 -1 17
5960 0 1 0 2.280707878473942 29.194643434602437 18.139593613958095 7 -1 17
5964 0 1 0 2.2958896596869827 31.66130253257078 18.039756915093818 7 -1 17
6199 0 1 0 5.172378046835713 29.14214457769407 18.35073497123776 7 -1 17
6203 0 1 0 5.093047867092534 31.655798046922534 18.3617066712821 7 -1 17
6198 0 1 0 4.414890146068799 30.401871696354693 18.349335764933013 7 -1 17
6194 0 1 0 4.470707714716518 27.902189593471103 18.41123788684559 7 -1 17
6197 0 1 0 2.9986267408953116 30.41357567099576 18.204650261202236 7 -1 17
6193 0 1 0 3.0339458966690525 27.985554483128748 18.30257249906253 7 -1 17
5963 0 1 0 0.8716543972737981 31.62554145841798 17.773971198819748 7 -1 17
6200 0 1 0 6.589039733183097 29.182922997586434 18.40580414265073 7 -1 17
6204 0 1 0 6.523778524379557 31.67172005188091 18.323223351509952 7 -1 17
6433 0 1 0 7.311308532714427 27.936275935106785 18.408977727141494 7 -1 17
6437 0 1 0 7.283612655660087 30.445756685272254 18.356028069882335 7 -1 17
6438 0 1 0 8.684345129756053 30.420782011654413 18.48814013650183 7 -1 17
6434 0 1 0 8.740916871190258 27.898596475884023 18.4668536310965 7 -1 17
6439 0 1 0 9.410139132400879 29.183518534483845 18.483041420468837 7 -1 17
6443 0 1 0 9.45177237003771 31.688157794518414 18.52556783508201 7 -1 17
6211 0 1 0 5.19377236288971 36.60268671945863 17.978872504416504 7 -1 17
5968 0 1 0 2.329225924062037 34.10326964845829 17.7480152655507 7 -1 17
6207 0 1 0 5.113431272114586 34.10865886824189 18.188053036668286 7 -1 17
6202 0 1 0 4.3771545799366285 32.84465954661471 18.292927719625865 7 -1 17
6206 0 1 0 4.421253621559166 35.37209691912518 17.96625419702089 7 -1 17
6205 0 1 0 3.031780420186908 35.34577231714363 17.748363616652686 7 -1 17
6201 0 1 0 3.0160095263306563 32.92160705764088 18.055594419884518 7 -1 17
5972 0 1 0 2.335485742790994 36.585784495434005 17.502245253731466 7 -1 17
5967 0 1 0 0.9043467834073563 34.09996791887931 17.44265157952215 7 -1 17
5971 0 1 0 0.9310929046690513 36.57348491651011 17.24929860483265 7 -1 17
6446 0 1 0 8.722338386110838 35.36803631388398 18.422601965143762 7 -1 17
6442 0 1 0 8.708502946748341 32.90255780826511 18.49260050662811 7 -1 17
6447 0 1 0 9.425454493297236 34.13423865829166 18.55524432969179 7 -1 17
6445 0 1 0 7.261573001569893 35.36769910029876 18.292232720898998 7 -1 17
6441 0 1 0 7.250587308182333 32.888422663737295 18.425950012967416 7 -1 17
6212 0 1 0 6.576973629608049 36.59171927249438 18.16576436490841 7 -1 17
6208 0 1 0 6.552002601097394 34.17841339959371 18.34950239119703 7 -1 17
5951 0 1 0 0.8828445062411107 24.194683522224206 17.956622180970882 7 -1 17
5955 0 1 0 0.9265579486723371 26.677554318431376 17.93512724223487 7 -1 17
5943 0 1 0 0.7895319029179579 19.264144520350175 17.84461744937987 7 -1 17
5947 0 1 0 0.8412218326087543 21.699541858572378 17.86632691194204 7 -1 17
5954 0 1 0 0.19959120877870726 27.91928383615226 17.70847939554796 7 -1 17
5966 0 1 0 0.21381127752594897 35.324424752336405 17.206050189702793 7 -1 17
5942 0 1 0 0.11788007669699686 20.449377525831377 17.772371902540456 7 -1 17
5962 0 1 0 0.203009258025886 32.86307639710536 17.48347320932053 7 -1 17
5958 0 1 0 0.15954576943131582 30.390856516552216 17.719562726659397 7 -1 17
5946 0 1 0 0.10163971963024944 22.96623218022851 17.854469078364094 7 -1 17
5950 0 1 0 0.20035295577719364 25.471384118013194 17.841138493642077 7 -1 17
6214 0 1 0 4.515024912416871 40.28492855599043 17.58901825683239 7 -1 17
6215 0 1 0 5.177385544638393 39.07311190815173 17.808766219711252 7 -1 17
6210 0 1 0 4.524314608638649 37.8144506801182 17.76079135867916 7 -1 17
6209 0 1 0 3.106850465591963 37.831239901218304 17.462632870769077 7 -1 17
6213 0 1 0 3.116182184118845 40.328398710604354 17.34795406125358 7 -1 17
5976 0 1 0 2.3810987552596767 39.080038226354525 17.329662249488823 7 -1 17
5980 0 1 0 2.4319745056950643 41.52842545870147 17.196889979334163 7 -1 17
6219 0 1 0 5.17501727940058 41.53197800233198 17.661209725602557 7 -1 17
5975 0 1 0 0.9464677851652151 39.03098110245501 17.14876937313242 7 -1 17
6216 0 1 0 6.599222480546946 39.0923131897237 18.044502247076984 7 -1 17
6449 0 1 0 7.324613186669083 37.85350463754392 18.13190113747972 7 -1 17
6453 0 1 0 7.301952142053723 40.30411399523495 18.086954539554743 7 -1 17
6454 0 1 0 8.686335631638885 40.31053919412297 18.21021325502663 7 -1 17
6455 0 1 0 9.464075774136603 39.06935815846446 18.280817310813227 7 -1 17
6450 0 1 0 8.739140752467604 37.839469710853606 18.246848357337726 7 -1 17
6459 0 1 0 9.402046440184424 41.57482305847863 18.228906686339286 7 -1 17
5984 0 1 0 2.358481501806145 43.993440149329174 17.09586302720449 7 -1 17
6223 0 1 0 5.252080669359155 44.00668397757559 17.50747887429022 7 -1 17
6222 0 1 0 4.53884645495165 45.214895844391336 17.30294689443492 7 -1 17
6218 0 1 0 4.529379230037553 42.78461985473724 17.457126552116492 7 -1 17
6217 0 1 0 3.1128141320145595 42.787084837639775 17.212581403793735 7 -1 17
6221 0 1 0 3.084468202149611 45.245508694702465 17.100173338918708 7 -1 17
5983 0 1 0 0.9486433822973184 44.023614564657976 16.876156319587412 7 -1 17
5979 0 1 0 0.9543120228129908 41.49879481730819 17.050726510539185 7 -1 17
6220 0 1 0 6.605016516216223 41.576717300513735 17.92058758434657 7 -1 17
6224 0 1 0 6.644133691631326 44.0147885155466 17.654881885365924 7 -1 17
6461 0 1 0 7.340781775029286 45.25860875341783 17.701461883095266 7 -1 17
6457 0 1 0 7.348324489357209 42.789465462944435 17.91088621677919 7 -1 17
6462 0 1 0 8.758795237215942 45.246353061811064 17.833615146156703 7 -1 17
6463 0 1 0 9.466548900113933 44.02145338929408 17.993726760203778 7 -1 17
6458 0 1 0 8.728162693755857 42.80341008752112 18.18579916033425 7 -1 17
5988 0 1 0 2.4067204334264365 46.46740193943382 16.87886940772105 7 -1 17
6226 0 1 0 4.551241477858236 47.69390781635111 17.16601673385312 7 -1 17
6231 0 1 0 5.239925219685576 48.95096876419299 17.216501431697708 7 -1 17
6227 0 1 0 5.261935292425907 46.49499583070961 17.355167389577595 7 -1 17
6230 0 1 0 4.542124892728346 50.16691225017316 17.057974545863324 7 -1 17
6229 0 1 0 3.1209723158207257 50.13741748598165 16.965986145664296 7 -1 17
6225 0 1 0 3.153797717232741 47.71098849607057 16.954710349486806 7 -1 17
5992 0 1 0 2.413437453004489 48.93909702606039 16.91898729798824 7 -1 17
5991 0 1 0 0.9726032425937027 48.92282865413287 16.785685332096218 7 -1 17
6465 0 1 0 7.390153360969651 47.76205780928641 17.552736215430784 7 -1 17
6232 0 1 0 6.654851363279049 48.98476806871948 17.357516232642492 7 -1 17
6228 0 1 0 6.656330748910945 46.53247431398563 17.54849133578938 7 -1 17
6469 0 1 0 7.418726221942069 50.19628765485915 17.310519345322515 7 -1 17
6466 0 1 0 8.822594829925833 47.746950118515045 17.61097581684057 7 -1 17
6471 0 1 0 9.542800793067736 49.008953935069215 17.5612756216743 7 -1 17
6467 0 1 0 9.512420010772624 46.488702845777254 17.709882449515202 7 -1 17
6470 0 1 0 8.801351067447559 50.25850257198324 17.48922429493666 7 -1 17
6237 0 1 0 3.0695871399144488 55.14818949847403 16.95494255951518 7 -1 17
6238 0 1 0 4.503244935021206 55.149215570540456 17.09410132251811 7 -1 17
5996 0 1 0 2.4372331420362765 51.35563791809385 16.847350220025803 7 -1 17
6000 0 1 0 2.371363611988118 53.90987950962902 16.88195923341784 7 -1 17
6234 0 1 0 4.4954151286176325 52.653112413795185 17.05354832381327 7 -1 17
6239 0 1 0 5.229057461968311 53.87876751240397 17.13434391090733 7 -1 17
6235 0 1 0 5.231898898093835 51.42322743417324 17.09678228680026 7 -1 17
6233 0 1 0 3.0715516583738918 52.644961582528246 16.96174670486847 7 -1 17
5999 0 1 0 0.9616188090442168 53.92647843074165 16.83643099348187 7 -1 17
6477 0 1 0 7.347997547752808 55.11902044971107 17.365837591241377 7 -1 17
6473 0 1 0 7.375552260658673 52.66162333245241 17.315774513563923 7 -1 17
6474 0 1 0 8.81086074171978 52.67034976327956 17.499310981174546 7 -1 17
6240 0 1 0 6.645426018349171 53.8624269592861 17.23424111442135 7 -1 17
6478 0 1 0 8.763139490970783 55.10612282463267 17.435650809775336 7 -1 17
6475 0 1 0 9.549868620726565 51.483594851556475 17.545200669260815 7 -1 17
6479 0 1 0 9.530760666841223 53.88382537950946 17.49115204350716 7 -1 17
6236 0 1 0 6.671966980057911 51.407554415759094 17.235679274507547 7 -1 17
5987 0 1 0 0.9797552739909041 46.4947175122563 16.66656272186261 7 -1 17
5995 0 1 0 0.9952816946612751 51.42504623982497 16.729298431741054 7 -1 17
5990 0 1 0 0.2746108478847733 50.21334691915697 16.65362097674947 7 -1 17
5998 0 1 0 0.1972597469578258 55.12185671865869 16.828249396465946 7 -1 17
5974 0 1 0 0.24702505746515338 40.269063426321 16.93736027026542 7 -1 17
5986 0 1 0 0.23985878327455823 47.73175006341008 16.62326096842109 7 -1 17
5994 0 1 0 0.2537394959489626 52.67964353222586 16.711363411582138 7 -1 17
5982 0 1 0 0.25545252820532166 45.24496131582077 16.65184245254707 7 -1 17
5970 0 1 0 0.25753461057770033 37.799723626062615 17.088382458792662 7 -1 17
5978 0 1 0 0.23884470415500553 42.76239375482206 16.874818453311565 7 -1 17
5784 0 1 0 2.3849055301833295 68.66470258503819 16.351371148798776 7 -2 17
6018 0 1 0 4.487279331904636 67.42537836915841 16.730475979036402 7 -2 17
6023 0 1 0 5.181101657929131 68.68771349147849 16.736761348299346 7 -2 17
6017 0 1 0 3.0913164733512994 67.42416072588388 16.49969155333292 7 -2 17
5780 0 1 0 2.3465923994177587 66.24751005638304 16.483403630584267 7 -2 17
5783 0 1 0 0.9687018747555824 68.7115050164516 15.994453286385033 7 -2 17
6031 0 1 0 5.238878756701112 73.61404776925976 16.0719850768893 7 -2 17
5792 0 1 0 2.376054257879459 73.64983929944678 15.8135153575349 7 -2 17
6025 0 1 0 3.1088000491782735 72.37553310548643 16.026554272625443 7 -2 17
5788 0 1 0 2.3963770147401773 71.14786742846593 16.092063496815893 7 -2 17
6022 0 1 0 4.49563950455835 69.95006522861799 16.574115418483824 7 -2 17
6027 0 1 0 5.22903266281797 71.18380845160448 16.516145671254783 7 -2 17
6026 0 1 0 4.539997130016597 72.36893915606139 16.21437017745658 7 -2 17
6021 0 1 0 3.056705891955591 69.94060326785613 16.40237706394799 7 -2 17
5791 0 1 0 0.9657275498026023 73.66148695418711 15.802155001547867 7 -2 17
5787 0 1 0 0.9623971812475031 71.14521939767684 15.85650872930835 7 -2 17
6032 0 1 0 6.650638640755185 73.57792759617321 16.27792083700659 7 -2 17
6007 0 1 0 5.228752641762998 58.855416284504884 16.990213475936493 7 -2 17
6003 0 1 0 5.175832655299372 56.3965917893857 17.068017960917633 7 -2 17
6002 0 1 0 4.458144876178475 57.623069064622015 16.947077136003777 7 -2 17
5764 0 1 0 2.3661569336476336 56.37928591467441 16.90006305957816 7 -2 17
6001 0 1 0 3.0509689203852903 57.615618624998305 16.80111331156181 7 -2 17
5768 0 1 0 2.3154167432436625 58.85473139427263 16.69441503998524 7 -2 17
6008 0 1 0 6.620854565872986 58.83578189140839 17.11080095319833 7 -2 17
6241 0 1 0 7.365323899498393 57.5628524513284 17.233419946460888 7 -2 17
6004 0 1 0 6.611407546751632 56.38108746723336 17.236966070574272 7 -2 17
6242 0 1 0 8.781062941942128 57.59053127630514 17.270723663463244 7 -2 17
6243 0 1 0 9.472507722088165 56.33052730986238 17.360586279809414 7 -2 17
6247 0 1 0 9.46484511296404 58.84391412133115 17.286324768037055 7 -2 17
6010 0 1 0 4.547062895390644 62.52029098433058 16.76352686888877 7 -2 17
6006 0 1 0 4.512368398902416 60.14999781901115 16.87533227183943 7 -2 17
6011 0 1 0 5.221305885293875 61.31466356332852 16.879956128758103 7 -2 17
6015 0 1 0 5.21513983539401 63.74062792327315 16.837605957290087 7 -2 17
6009 0 1 0 3.0970292840657914 62.53422790062418 16.710499465920392 7 -2 17
6005 0 1 0 3.0633303913344085 60.082834029911055 16.69287333847639 7 -2 17
5772 0 1 0 2.3934830009115124 61.309295688593174 16.624017345150808 7 -2 17
5776 0 1 0 2.411832483456944 63.80455002915138 16.565600599547235 7 -2 17
5775 0 1 0 0.9970948103299159 63.753661666767165 16.34735949479664 7 -2 17
6249 0 1 0 7.342078955466783 62.573916789604766 17.180205219861172 7 -2 17
6012 0 1 0 6.66926890208346 61.33759849186357 17.113378367744392 7 -2 17
6245 0 1 0 7.344864200566972 60.077773623210994 17.118654727697695 7 -2 17
6016 0 1 0 6.629513245382302 63.76155467149819 17.032245411005963 7 -2 17
6250 0 1 0 8.739045112592303 62.56753961426064 17.24464950665901 7 -2 17
6246 0 1 0 8.748539916789234 60.07283673263192 17.223745091174738 7 -2 17
6251 0 1 0 9.472501622173828 61.274211372291575 17.26895212320626 7 -2 17
6255 0 1 0 9.446778289572764 63.78977832712411 17.250836539318183 7 -2 17
6019 0 1 0 5.205927545717666 66.16300568721384 16.832836833406883 7 -2 17
6014 0 1 0 4.4936160361207795 64.97336772245005 16.719441090994138 7 -2 17
6013 0 1 0 3.086542465246349 65.01291265499671 16.557967727910153 7 -2 17
6253 0 1 0 7.366532958564284 65.00326201179412 17.077691205847525 7 -2 17
6257 0 1 0 7.3053817645651336 67.47267164585291 16.902731806469124 7 -2 17
6020 0 1 0 6.638847623018709 66.22946163894296 17.05169775579932 7 -2 17
6024 0 1 0 6.625438016519876 68.71848319702644 16.844595369365948 7 -2 17
6263 0 1 0 9.481750715189 68.66144089836452 16.8916442148678 7 -2 17
6254 0 1 0 8.76031768855496 64.99748822787033 17.16920398899463 7 -2 17
6258 0 1 0 8.740615728017568 67.43287932575868 17.011443660207508 7 -2 17
6259 0 1 0 9.486969102884643 66.18911597622447 17.122442997131348 7 -2 17
6265 0 1 0 7.408328844916537 72.37653764214083 16.567179599713576 7 -2 17
6267 0 1 0 9.494750487163133 71.12026586521581 16.68645529287781 7 -2 17
6266 0 1 0 8.820524489977105 72.34982069050935 16.54734018303605 7 -2 17
6271 0 1 0 9.553206966782112 73.61276734056949 16.540506663776856 7 -2 17
6262 0 1 0 8.75268134547061 69.90537505019859 16.749502847917704 7 -2 17
6028 0 1 0 6.650051085120718 71.14814933351622 16.577291264972803 7 -2 17
6261 0 1 0 7.352544919477437 69.93837751614845 16.73724025812107 7 -2 17
5779 0 1 0 0.9753969747268623 66.2555939661103 16.230190649473037 7 -2 17
5771 0 1 0 0.9858403515966816 61.250518485070685 16.496625333861246 7 -2 17
5763 0 1 0 0.9361135050863494 56.367108231480756 16.813744632652973 7 -2 17
5767 0 1 0 0.9230721361837163 58.787517149965446 16.680442732377337 7 -2 17
5762 0 1 0 0.2585179000714756 57.56313179557972 16.564848416539192 7 -2 17
5786 0 1 0 0.2729502624536402 72.37643481995887 15.807223463276296 7 -2 17
5782 0 1 0 0.2447811841013507 69.89817997760723 15.80422350764952 7 -2 17
5774 0 1 0 0.28489932198335194 64.9674329668897 16.300634378375094 7 -2 17
5778 0 1 0 0.2669517482175337 67.43058292695406 16.011697220244525 7 -2 17
5766 0 1 0 0.258377114241326 60.01960042102178 16.44511704068701 7 -2 17
5770 0 1 0 0.27898864320604616 62.480123464636264 16.30560267144149 7 -2 17
6030 0 1 0 4.535023613663111 74.85688293353262 15.830750400609523 7 -2 17
6035 0 1 0 5.252817893745504 76.02864261386203 15.884842873858588 7 -2 17
6034 0 1 0 4.603549257737282 77.27261422278222 15.722977846055773 7 -2 17
6033 0 1 0 3.146228796800678 77.27392262185491 15.65324799328554 7 -2 17
6029 0 1 0 3.1177013441462487 74.87857075582937 15.869033431076387 7 -2 17
5796 0 1 0 2.4220417168511204 76.08011314434178 15.739658888718159 7 -2 17
5795 0 1 0 0.9687881553639696 76.08656543206482 15.706957469513014 7 -2 17
6037 0 1 0 3.169663708153468 79.77439642036602 15.447350396315304 7 -2 17
6041 0 1 0 3.119719840953431 82.2574528183011 15.358131908789467 7 -2 17
5804 0 1 0 2.365940140232227 81.00160622821824 15.318662328712893 7 -2 17
5800 0 1 0 2.4709694735753094 78.53348084202429 15.539620639939342 7 -2 17
6042 0 1 0 4.5158495906877025 82.21751082447864 15.598072557352989 7 -2 17
6038 0 1 0 4.574630207292687 79.7668699105173 15.581176756916815 7 -2 17
6043 0 1 0 5.29832904653335 80.97046519486751 15.713052136613166 7 -2 17
6039 0 1 0 5.302819169295291 78.50763725667986 15.749227955476984 7 -2 17
5803 0 1 0 0.9682106228503223 81.02488519887984 15.10915371263039 7 -2 17
5799 0 1 0 0.9948436133858372 78.51680150765044 15.457561249098019 7 -2 17
6044 0 1 0 6.763542724895611 80.98374603818475 15.807627463775086 7 -2 17
6281 0 1 0 7.44835342996403 82.18720168928257 15.84306253643815 7 -2 17
6282 0 1 0 8.861725158043651 82.22964830568772 15.776631625659807 7 -2 17
6051 0 1 0 5.29258869451303 85.91321349498622 15.627106318551371 7 -2 17
6046 0 1 0 4.567844263686879 84.67366877056612 15.582724284181186 7 -2 17
6050 0 1 0 4.5668328685644255 87.14567666116402 15.611890766609415 7 -2 17
6045 0 1 0 3.156968124381615 84.67145591823504 15.379405452097679 7 -2 17
6049 0 1 0 3.189142057490959 87.16386235711835 15.362112555429315 7 -2 17
5808 0 1 0 2.411204853773188 83.4779571692728 15.265268399112369 7 -2 17
5812 0 1 0 2.4492826133635814 85.89857611614796 15.28742467120255 7 -2 17
6047 0 1 0 5.2655860094513445 83.42237804263337 15.709135487416047 7 -2 17
5811 0 1 0 1.0521728336850642 85.97701946148948 15.231435991772186 7 -2 17
5807 0 1 0 0.9971247999833653 83.53841453634269 15.1407936616196 7 -2 17
6285 0 1 0 7.432076729769524 84.64585433332076 15.7898496765519 7 -2 17
6052 0 1 0 6.6822380132444925 85.88243252516362 15.807368040416083 7 -2 17
6289 0 1 0 7.422850059199122 87.17196731743157 15.792875280400972 7 -2 17
6291 0 1 0 9.528178175073647 85.94637226096296 15.5915743554115 7 -2 17
6290 0 1 0 8.860924187698862 87.17258336363982 15.624519469696889 7 -2 17
6048 0 1 0 6.736219064882634 83.42431599918855 15.773789386802404 7 -2 17
6286 0 1 0 8.856152848812652 84.68102144223731 15.727763466596935 7 -2 17
6287 0 1 0 9.562879789891703 83.41898193552531 15.694945281100127 7 -2 17
6058 0 1 0 4.594469369723409 92.02578957026272 15.603643112513804 7 -2 17
6057 0 1 0 3.146612249764111 92.03952160074094 15.56718986175066 7 -2 17
6055 0 1 0 5.2978459959811115 88.35161272120057 15.725460013732247 7 -2 17
6059 0 1 0 5.283010718517507 90.83150122334867 15.6544247201324 7 -2 17
6054 0 1 0 4.571900082605338 89.5815504504752 15.585537955573326 7 -2 17
6053 0 1 0 3.164313360271668 89.5958511549384 15.374533370907152 7 -2 17
5820 0 1 0 2.4293197309697083 90.8198072842265 15.260989622375845 7 -2 17
5816 0 1 0 2.4457642420079684 88.38821459943219 15.182560080889045 7 -2 17
5815 0 1 0 1.0316461616940567 88.4189507020786 15.08861378976559 7 -2 17
5819 0 1 0 1.0023185532249947 90.83471879791757 15.14574897677448 7 -2 17
6298 0 1 0 8.873063960411608 92.11108691472054 15.47030474144865 7 -2 17
6294 0 1 0 8.836203926467778 89.65102737175695 15.57507505221885 7 -2 17
6299 0 1 0 9.544858907013355 90.87666470636711 15.464423677509181 7 -2 17
6295 0 1 0 9.560891196272129 88.4047312412588 15.495798835401098 7 -2 17
6060 0 1 0 6.7077023898577615 90.81605078415659 15.693187573250123 7 -2 17
6297 0 1 0 7.382839226351671 92.07093660360455 15.582376820427843 7 -2 17
6056 0 1 0 6.697910243465907 88.38334237436109 15.722674199707239 7 -2 17
6293 0 1 0 7.422120759360725 89.64603538020476 15.748489261264474 7 -2 17
6036 0 1 0 6.671217162531057 76.0467802716276 16.058421918609188 7 -2 17
6269 0 1 0 7.4202722750896735 74.78721238582607 16.188165458926687 7 -2 17
6273 0 1 0 7.390978326321943 77.31537477624343 16.001145785126592 7 -2 17
6270 0 1 0 8.85954754286813 74.82386123869256 16.35732654370023 7 -2 17
6274 0 1 0 8.834265171074719 77.2749272360081 16.12863348590879 7 -2 17
6275 0 1 0 9.562394335654515 76.03589314260746 16.261485828001334 7 -2 17
6040 0 1 0 6.71499414999436 78.53345775288442 15.883638229503868 7 -2 17
6277 0 1 0 7.420552451638182 79.7569892312027 15.82756150848479 7 -2 17
6278 0 1 0 8.849077879551716 79.76389385565778 15.933101012350058 7 -2 17
6279 0 1 0 9.555905543406595 78.52176528269388 16.124308636217496 7 -2 17
6283 0 1 0 9.57358306433591 80.95933329579428 15.866880742212109 7 -2 17
5814 0 1 0 0.2886344633553781 89.61483704661777 14.989807905234656 7 -2 17
5818 0 1 0 0.24653541676824733 92.0857910305736 15.127419314915368 7 -2 17
5802 0 1 0 0.27068128592233587 82.28670397604121 15.196507856928232 7 -2 17
5806 0 1 0 0.28405036046467674 84.77706917753098 15.208437225850334 7 -2 17
5810 0 1 0 0.30479845764775276 87.18898277008131 15.165471180115114 7 -2 17
5790 0 1 0 0.2590866451681179 74.86410592068094 15.771017136877905 7 -2 17
5798 0 1 0 0.32060167336492695 79.79800843937254 15.282509287855868 7 -2 17
5794 0 1 0 0.23386996659249762 77.32385739775604 15.592483206010272 7 -2 17
6067 0 1 0 5.271493870897384 95.79756305619064 15.39072844799796 7 -2 17
6063 0 1 0 5.256260279320162 93.29470101367504 15.56223356227743 7 -2 17
6062 0 1 0 4.581132303609273 94.5097044582288 15.507124542513193 7 -2 17
6061 0 1 0 3.123341646615014 94.56477869792815 15.466142809404731 7 -2 17
5828 0 1 0 2.4082202465389715 95.7754014157905 15.376652057039806 7 -2 17
5824 0 1 0 2.4646820427925675 93.29749119823406 15.48762249140953 7 -2 17
5827 0 1 0 0.9955183241751354 95.76566632033537 15.374408915027097 7 -2 17
5823 0 1 0 1.0403203088041955 93.28789730161066 15.237464283929425 7 -2 17
6068 0 1 0 6.719090371504866 95.78616700121566 15.344046875086912 7 -2 17
6064 0 1 0 6.713210645602479 93.2932195135997 15.51869362245775 7 -2 17
6301 0 1 0 7.402241396827218 94.56132205354524 15.40291789290069 7 -2 17
6302 0 1 0 8.831293993547169 94.59043289979387 15.45725929047801 7 -2 17
6303 0 1 0 9.557608939118923 93.34393774693123 15.50655182584866 7 -2 17
6307 0 1 0 9.544309155052918 95.80785228475285 15.318190438463375 7 -2 17
5832 0 1 0 2.4422741243239607 98.21342908876343 15.317436199532873 7 -2 17
6071 0 1 0 5.255532341710425 98.2257529115261 15.237781403134964 7 -2 17
6075 0 1 0 5.311573782386636 100.7339668091891 15.366609960965746 7 -2 17
6070 0 1 0 4.5865738327456285 99.50955724670254 15.2786419826798 7 -2 17
6066 0 1 0 4.545684893869896 97.00164388949982 15.263555811919874 7 -2 17
6069 0 1 0 3.1366735829614134 99.47775688264413 15.22544118400778 7 -2 17
6065 0 1 0 3.1184157923178963 96.95467143534964 15.268810474555035 7 -2 17
5836 0 1 0 2.421666810226743 100.71084434337251 15.330809679987533 7 -2 17
5831 0 1 0 0.9828660678859837 98.26045872069322 15.355937510512387 7 -2 17
5835 0 1 0 0.9738412426153653 100.72860018554593 15.372202658313055 7 -2 17
6072 0 1 0 6.664194509827229 98.23868293475168 15.277376553364643 7 -2 17