 DBCSR| CPU Multiplication driver                                           BLAS
 DBCSR| Multrec recursion limit                                              512
 DBCSR| Multiplication stack size                                           1000
 DBCSR| Maximum elements for images                                    UNLIMITED
 DBCSR| Multiplicative factor virtual images                                   1
 DBCSR| Use multiplication densification                                       T
 DBCSR| Multiplication size stacks                                             3
 DBCSR| Use memory pool for CPU allocation                                     F
 DBCSR| Number of 3D layers                                               SINGLE
 DBCSR| Use MPI memory allocation                                              F
 DBCSR| Use RMA algorithm                                                      F
 DBCSR| Use Communication thread                                               T
 DBCSR| Communication thread load                                             87
 DBCSR| MPI: My node id                                                        0
 DBCSR| MPI: Number of nodes                                                 128
 DBCSR| OMP: Current number of threads                                         1
 DBCSR| OMP: Max number of threads                                             1
 DBCSR| Split modifier for TAS multiplication algorithm                  1.0E+00


  **** **** ******  **  PROGRAM STARTED AT               2025-10-22 11:40:04.369
 ***** ** ***  *** **   PROGRAM STARTED ON                             nid003564
 **    ****   ******    PROGRAM STARTED BY                            xr223_ukcp
 ***** **    ** ** **   PROGRAM PROCESS ID                                207554
  **** **  *******  **  PROGRAM STARTED IN /mnt/lustre/a2fs-work3/work/e89/e89/x
                                           r223_ukcp/BINDING-ENERGY-DARREN/bindi
                                           ng-energy/1-leg/s+1.00/d+3.50

 CP2K| version string:                                          CP2K version 9.1
 CP2K| source code revision number:                                  git:d8d7100
 CP2K| cp2kflags: omp libint fftw3 libxc elpa parallel mpi3 scalapack plumed2 mk
 CP2K|            l
 CP2K| is freely available from                            https://www.cp2k.org/
 CP2K| Program compiled at                       Thu 08 Jun 2023 08:54:13 AM BST
 CP2K| Program compiled on                                                  ln03
 CP2K| Program compiled for                                              ARCHER2
 CP2K| Data directory path       /work/y07/shared/apps/core/cp2k/cp2k-9.1.0/data
 CP2K| Input file name                                              cp2k_sub.inp

 GLOBAL| Force Environment number                                              1
 GLOBAL| Basis set file name                                      GTH_BASIS_SETS
 GLOBAL| Potential file name                                           POTENTIAL
 GLOBAL| MM Potential file name                                     MM_POTENTIAL
 GLOBAL| Coordinate file name                                           init.pdb
 GLOBAL| Method name                                                        CP2K
 GLOBAL| Project name                                                    MAT-H2O
 GLOBAL| Run type                                                         ENERGY
 GLOBAL| FFT library                                                       FFTW3
 GLOBAL| Diagonalization library                                            ELPA
 GLOBAL| Minimum number of eigenvectors for ELPA usage                        16
 GLOBAL| Orthonormality check for eigenvectors                          DISABLED
 GLOBAL| Matrix multiplication library                                 ScaLAPACK
 GLOBAL| All-to-all communication in single precision                          F
 GLOBAL| FFTs using library dependent lengths                                  F
 GLOBAL| Grid backend                                                       AUTO
 GLOBAL| Global print level                                                  LOW
 GLOBAL| MPI I/O enabled                                                       T
 GLOBAL| Total number of message passing processes                           128
 GLOBAL| Number of threads for this process                                    1
 GLOBAL| This output is from process                                           0
 GLOBAL| Stack size for threads created by OpenMP (OMP_STACKSIZE)        default
 GLOBAL| CPU model name                          AMD EPYC 7742 64-Core Processor
 GLOBAL| CPUID                                                              1002

 MEMORY| system memory details [Kb]
 MEMORY|                        rank 0           min           max       average
 MEMORY| MemTotal            263266848     263266848     263266848     263266848
 MEMORY| MemFree             241378188     241377788     241378188     241378169
 MEMORY| Buffers                180568        180568        180568        180568
 MEMORY| Cached                1347260       1347256       1347260       1347259
 MEMORY| Slab                  3385176       3385176       3385176       3385176
 MEMORY| SReclaimable           977144        977144        977144        977144
 MEMORY| MemLikelyFree       243883160     243882756     243883160     243883141


 *******************************************************************************
 *******************************************************************************
 **                                                                           **
 **     #####                         ##              ##                      **
 **    ##   ##            ##          ##              ##                      **
 **   ##     ##                       ##            ######                    **
 **   ##     ##  ##   ##  ##   #####  ##  ##   ####   ##    #####    #####    **
 **   ##     ##  ##   ##  ##  ##      ## ##   ##      ##   ##   ##  ##   ##   **
 **   ##  ## ##  ##   ##  ##  ##      ####     ###    ##   ######   ######    **
 **    ##  ###   ##   ##  ##  ##      ## ##      ##   ##   ##       ##        **
 **     #######   #####   ##   #####  ##  ##  ####    ##    #####   ##        **
 **           ##                                                    ##        **
 **                                                                           **
 **                                                ... make the atoms dance   **
 **                                                                           **
 **            Copyright (C) by CP2K developers group (2000-2021)             **
 **                      J. Chem. Phys. 152, 194103 (2020)                    **
 **                                                                           **
 *******************************************************************************


 TOTAL NUMBERS AND MAXIMUM NUMBERS

  Total number of            - Atomic kinds:                                   3
                             - Atoms:                                         67
                             - Shell sets:                                    70
                             - Shells:                                       338
                             - Primitive Cartesian functions:                341
                             - Cartesian basis functions:                    938
                             - Spherical basis functions:                    872

  Maximum angular momentum of- Orbital basis functions:                        2
                             - Local part of the GTH pseudopotential:          2
                             - Non-local part of the GTH pseudopotential:      0


 SCF PARAMETERS         Density guess:                                   RESTART
                        --------------------------------------------------------
                        max_scf:                                              20
                        max_scf_history:                                       0
                        max_diis:                                              4
                        --------------------------------------------------------
                        eps_scf:                                        5.00E-07
                        eps_scf_history:                                0.00E+00
                        eps_diis:                                       1.00E-01
                        eps_eigval:                                     1.00E-05
                        --------------------------------------------------------
                        level_shift [a.u.]:                                 0.00
                        added MOs                                        20    0
                        --------------------------------------------------------
                        Mixing method:                            BROYDEN_MIXING
                                                charge density mixing in g-space
                        --------------------------------------------------------
                        Smear method:                                FERMI_DIRAC
                        Electronic temperature [K]:                        300.0
                        Electronic temperature [a.u.]:                  9.50E-04
                        Accuracy threshold:                             1.00E-10
                        --------------------------------------------------------
                        Outer loop SCF in use 
                        No variables optimised in outer loop
                        eps_scf                                         5.00E-07
                        max_scf                                               20
                        No outer loop optimization
                        step_size                                       5.00E-01

 Number of electrons:                                                        264
 Number of occupied orbitals:                                                132
 Number of molecular orbitals:                                               152

 Number of orbital functions:                                                872
 Number of independent orbital functions:                                    872

 Extrapolation method: initial_guess

 *** WARNING in qs_initial_guess.F:309 :: User requested to restart the    ***
 *** wavefunction from the file named: MAT-H2O-RESTART.wfn. This file does ***
 *** not exist. Please check the existence of the file or change properly  ***
 *** the value of the keyword WFN_RESTART_FILE_NAME. Calculation continues ***
 *** using ATOMIC GUESS.                                                   ***



 SCF WAVEFUNCTION OPTIMIZATION

  Step     Update method      Time    Convergence         Total energy    Change
  ------------------------------------------------------------------------------
     1 NoMix/Diag. 0.40E+00    0.6     1.20794846      -379.0667002957 -3.79E+02
     2 Broy./Diag. 0.40E+00    0.7     0.33370415      -370.0366429912  9.03E+00
     3 Broy./Diag. 0.40E+00    0.7     0.02148075      -378.8187139760 -8.78E+00
     4 Broy./Diag. 0.40E+00    0.8     0.01030348      -382.3667915044 -3.55E+00
     5 Broy./Diag. 0.40E+00    0.8     0.00350226      -382.5554696589 -1.89E-01
     6 Broy./Diag. 0.40E+00    0.8     0.00160448      -382.2472624490  3.08E-01
     7 Broy./Diag. 0.40E+00    0.8     0.00163389      -382.2000626393  4.72E-02
     8 Broy./Diag. 0.40E+00    0.8     0.00182451      -382.2023429014 -2.28E-03
     9 Broy./Diag. 0.40E+00    0.8     0.00169440      -382.1968635564  5.48E-03
    10 Broy./Diag. 0.40E+00    0.8     0.00041166      -382.1987998126 -1.94E-03
    11 Broy./Diag. 0.40E+00    0.8     0.00061621      -382.1973100251  1.49E-03
    12 Broy./Diag. 0.40E+00    0.8     0.00012161      -382.1984312583 -1.12E-03
    13 Broy./Diag. 0.40E+00    0.8     0.00010345      -382.1989727401 -5.41E-04
    14 Broy./Diag. 0.40E+00    0.8     0.00008275      -382.1983721139  6.01E-04
    15 Broy./Diag. 0.40E+00    0.8     0.00004203      -382.1982079892  1.64E-04
    16 Broy./Diag. 0.40E+00    0.8     0.00001438      -382.1983027972 -9.48E-05
    17 Broy./Diag. 0.40E+00    0.8     0.00000667      -382.1983610048 -5.82E-05
    18 Broy./Diag. 0.40E+00    0.8     0.00000608      -382.1983488893  1.21E-05
    19 Broy./Diag. 0.40E+00    0.8     0.00000062      -382.1983490208 -1.31E-07
    20 Broy./Diag. 0.40E+00    0.8     0.00000165      -382.1983595724 -1.06E-05

  Leaving inner SCF loop after reaching    20 steps.


  Electronic density on regular grids:       -264.0000000000        0.0000000000
  Core density on regular grids:              263.9999999998       -0.0000000002
  Total charge density on r-space grids:       -0.0000000002
  Total charge density g-space grids:          -0.0000000002

  Overlap energy of the core charge distribution:               0.00000793211145
  Self energy of the core charge distribution:               -897.78766230971098
  Core Hamiltonian energy:                                    278.64845932337170
  Hartree energy:                                             353.03026659709479
  Exchange-correlation energy:                               -115.91159990108632
  Dispersion energy:                                           -0.17783121418188
  Electronic entropic energy:                                  -0.00000000000000
  Fermi energy:                                                -0.06921929421149

  Total energy:                                              -382.19835957240133

  outer SCF iter =    1 RMS gradient =   0.16E-05 energy =       -382.1983595724
     1 Broy./Diag. 0.40E+00    1.5     0.00000150      -382.1983714647 -1.19E-05
     2 Broy./Diag. 0.40E+00    0.8     0.00000122      -382.1983710539  4.11E-07
     3 Broy./Diag. 0.40E+00    0.8     0.00000063      -382.1983649490  6.10E-06
     4 Broy./Diag. 0.40E+00    0.8     0.00000026      -382.1983652311 -2.82E-07

  *** SCF run converged in     4 steps ***


  Electronic density on regular grids:       -264.0000000000        0.0000000000
  Core density on regular grids:              263.9999999998       -0.0000000002
  Total charge density on r-space grids:       -0.0000000002
  Total charge density g-space grids:          -0.0000000002

  Overlap energy of the core charge distribution:               0.00000793211145
  Self energy of the core charge distribution:               -897.78766230971098
  Core Hamiltonian energy:                                    278.64845105332699
  Hartree energy:                                             353.03027092143253
  Exchange-correlation energy:                               -115.91160161407018
  Dispersion energy:                                           -0.17783121418188
  Electronic entropic energy:                                  -0.00000000000000
  Fermi energy:                                                -0.06921900069151

  Total energy:                                              -382.19836523109211

  outer SCF iter =    2 RMS gradient =   0.26E-06 energy =       -382.1983652311
  outer SCF loop converged in   2 iterations or   24 steps


 ENERGY| Total FORCE_EVAL ( QS ) energy [a.u.]:             -382.198365231092112

 -------------------------------------------------------------------------------
 -                                                                             -
 -                                DBCSR STATISTICS                             -
 -                                                                             -
 -------------------------------------------------------------------------------
 COUNTER                                    TOTAL       BLAS       SMM       ACC
 flops     9 x    22 x    24               228096     100.0%      0.0%      0.0%
 flops    22 x     9 x    24               228096     100.0%      0.0%      0.0%
 flops     9 x     9 x    24               279936     100.0%      0.0%      0.0%
 flops    22 x    22 x    24               557568     100.0%      0.0%      0.0%
 flops     9 x    22 x    32              1216512     100.0%      0.0%      0.0%
 flops    22 x     9 x    32              1216512     100.0%      0.0%      0.0%
 flops     9 x     9 x    32              1492992     100.0%      0.0%      0.0%
 flops    22 x    22 x    32              2973696     100.0%      0.0%      0.0%
 flops     9 x    13 x    24              8626176     100.0%      0.0%      0.0%
 flops    13 x     9 x    24              8626176     100.0%      0.0%      0.0%
 flops    22 x    13 x    24             10543104     100.0%      0.0%      0.0%
 flops    13 x    22 x    24             10543104     100.0%      0.0%      0.0%
 flops     9 x    13 x    32             46006272     100.0%      0.0%      0.0%
 flops    13 x     9 x    32             46006272     100.0%      0.0%      0.0%
 flops    22 x    13 x    32             56229888     100.0%      0.0%      0.0%
 flops    13 x    22 x    32             56229888     100.0%      0.0%      0.0%
 flops    13 x    13 x    24            404951040     100.0%      0.0%      0.0%
 flops    13 x    13 x    32           2159738880     100.0%      0.0%      0.0%
 flops inhomo. stacks                           0       0.0%      0.0%      0.0%
 flops total                         2.815694E+09     100.0%      0.0%      0.0%
 flops max/rank                     36.801024E+06     100.0%      0.0%      0.0%
 matmuls inhomo. stacks                         0       0.0%      0.0%      0.0%
 matmuls total                             273360     100.0%      0.0%      0.0%
 number of processed stacks                 24600     100.0%      0.0%      0.0%
 average stack size                                    11.1       0.0       0.0
 marketing flops                     4.817793E+09
 -------------------------------------------------------------------------------
 # multiplications                             24
 max memory usage/rank             341.364736E+06
 # max total images/rank                        2
 # max 3D layers                                1
 # MPI messages exchanged                   89088
 MPI messages size (bytes):
  total size                       559.865856E+06
  min size                           0.000000E+00
  max size                          29.952000E+03
  average size                       6.284414E+03
 MPI breakdown and total messages size (bytes):
             size <=      128               61248                        0
       128 < size <=     8192                   0                        0
      8192 < size <=    32768               27840                559865856
     32768 < size <=   131072                   0                        0
    131072 < size <=  4194304                   0                        0
   4194304 < size <= 16777216                   0                        0
  16777216 < size                               0                        0
 -------------------------------------------------------------------------------

 *** WARNING in dbcsr_mm.F:294 :: Using a non-square number of MPI ranks ***
 *** might lead to poor performance. Used ranks: 128 Suggested: 121 256  ***

 -------------------------------------------------------------------------------
 -                                                                             -
 -                      DBCSR MESSAGE PASSING PERFORMANCE                      -
 -                                                                             -
 -------------------------------------------------------------------------------
 ROUTINE             CALLS      AVE VOLUME [Bytes]
 MP_Bcast               19                     12.
 MP_Allreduce          224                     12.
 MP_Alltoall           684                  51860.
 MP_ISend             1536                   3590.
 MP_IRecv             1536                   2683.
 -------------------------------------------------------------------------------

 -------------------------------------------------------------------------------
 -                                                                             -
 -                                GRID STATISTICS                              -
 -                                                                             -
 -------------------------------------------------------------------------------
 LP    KERNEL             BACKEND                              COUNT     PERCENT
 4     collocate ortho    REF                                1176775      46.91%
 4     integrate ortho    REF                                1129704      45.03%
 2     collocate ortho    REF                                  51275       2.04%
 2     integrate ortho    REF                                  49224       1.96%
 3     collocate ortho    REF                                  42600       1.70%
 3     integrate ortho    REF                                  40896       1.63%
 0     collocate general  REF                                   8576       0.34%
 1     collocate ortho    REF                                   2850       0.11%
 1     integrate ortho    REF                                   2736       0.11%
 0     collocate ortho    REF                                   2000       0.08%
 0     integrate ortho    REF                                   1920       0.08%
 -------------------------------------------------------------------------------

 MEMORY| Estimated peak process memory [MiB]                                 326

 -------------------------------------------------------------------------------
 -                                                                             -
 -                         MESSAGE PASSING PERFORMANCE                         -
 -                                                                             -
 -------------------------------------------------------------------------------

 ROUTINE             CALLS      AVE VOLUME [Bytes]
 MP_Group                5
 MP_Bcast              185                3514197.
 MP_Allreduce          645                   1529.
 MP_Sync                53
 MP_Alltoall           382                3365361.
 MP_SendRecv           288                 409600.
 MP_ISendRecv        18669                  24960.
 MP_Wait             21243
 MP_comm_split          24
 MP_ISend             2178                 365999.
 MP_IRecv             2178                 366099.
 MP_Recv                15                  69760.
 -------------------------------------------------------------------------------


 -------------------------------------------------------------------------------
 -                                                                             -
 -                           R E F E R E N C E S                               -
 -                                                                             -
 -------------------------------------------------------------------------------
 
 CP2K version 9.1, the CP2K developers group (2021).
 CP2K is freely available from https://www.cp2k.org/ .

 Kuehne,Thomas D.; Iannuzzi,Marcella; Del Ben,Mauro;
 Rybkin,Vladimir V.; Seewald,Patrick; Stein,Frederick; Laino,Teodoro;
 Khaliullin,Rustam Z.; Schuett,Ole; Schiffmann,Florian; Golze,Dorothea;
 Wilhelm,Jan; Chulkov,Sergey; Bani-Hashemian,Mohammad Hossein;
 Weber,Valery; Borstnik,Urban; Taillefumier,Mathieu;
 Jakobovits,Alice Shoshana; Lazzaro,Alfio; Pabst,Hans; Mueller,Tiziano;
 Schade,Robert; Guidon,Manuel; Andermatt,Samuel; Holmberg,Nico;
 Schenter,Gregory K.; Hehn,Anna; Bussy,Augustin; Belleflamme,Fabian;
 Tabacchi,Gloria; Gloess,Andreas; Lass,Michael; Bethune,Iain;
 Mundy,Christopher J.; Plessl,Christian; Watkins,Matt;
 VandeVondele,Joost; Krack,Matthias; Hutter,Juerg. 
 The Journal of Chemical Physics, 152 (19), (2020). 
 CP2K: An electronic structure and molecular dynamics software package -
 Quickstep: Efficient and accurate electronic structure calculations.
 https://doi.org/10.1063/5.0007045

 Goerigk, Lars; Hansen, Andreas; Bauer, Christoph; Ehrlich, Stephan;
 Najibi, Asim; Grimme, Stefan. , 19 (48), (2017). 
 A look at the density functional theory zoo with the advanced GMTKN55 database
 for general main group thermochemistry, kinetics and noncovalent interactions.
 https://doi.org/10.1039/C7CP04913G

 Schuett, Ole; Messmer, Peter; Hutter, Juerg; VandeVondele, Joost. 
 Electronic Structure Calculations on Graphics Processing Units, John
 Wiley & Sons, Ltd, 173-190 (2016). 
 GPU-Accelerated Sparse Matrix-Matrix Multiplication for
 Linear Scaling Density Functional Theory.
 https://doi.org/10.1002/9781118670712.ch8

 Borstnik, U; VandeVondele, J; Weber, V; Hutter, J. 
 PARALLEL COMPUTING, 40 (5-6), 47-58 (2014). 
 Sparse matrix multiplication: The distributed block-compressed sparse
 row library.
 https://doi.org/10.1016/j.parco.2014.03.012

 Hutter, J; Iannuzzi, M; Schiffmann, F; VandeVondele, J. 
 WIREs Comput Mol Sci., 4 (1), 15-25 (2014). 
 CP2K: atomistic simulations of condensed matter systems.
 https://doi.org/10.1002/wcms.1159

 Marek, A; Blum, V; Johanni, R; Havu, V; Lang, B; Auckenthaler, T;
 Heinecke, A; Bungartz, H; Lederer, H. 
 Journal of Physics: Condensed Matter, 26 (21), (2014). 
 The ELPA library: scalable parallel eigenvalue solutions for
 electronic structure
 theory and computational science.
 https://doi.org/10.1088/0953-8984/26/21/213201

 Grimme, S; Ehrlich, S; Goerigk, L. 
 JOURNAL OF COMPUTATIONAL CHEMISTRY, 32, 1456 (2011). 
 Effect of the damping function in dispersion corrected density functional theory.
 https://doi.org/10.1002/jcc.21759

 Grimme, S; Antony, J; Ehrlich, S; Krieg, H. 
 JOURNAL OF CHEMICAL PHYSICS, 132 (15), 154104 (2010). 
 A consistent and accurate ab initio parametrization of density
 functional dispersion correction (DFT-D) for the 94 elements H-Pu.
 https://doi.org/10.1063/1.3382344

 VandeVondele, J; Hutter, J. 
 JOURNAL OF CHEMICAL PHYSICS, 127 (11), 114105 (2007). 
 Gaussian basis sets for accurate calculations on molecular systems in
 gas and condensed phases.
 https://doi.org/10.1063/1.2770708

 Krack, M. 
 THEORETICAL CHEMISTRY ACCOUNTS, 114 (1-3), 145-152 (2005). 
 Pseudopotentials for H to Kr optimized for gradient-corrected
 exchange-correlation functionals.
 https://doi.org/10.1007/s00214-005-0655-y

 VandeVondele, J; Krack, M; Mohamed, F; Parrinello, M; Chassaing, T;
 Hutter, J. COMPUTER PHYSICS COMMUNICATIONS, 167 (2), 103-128 (2005). 
 QUICKSTEP: Fast and accurate density functional calculations using a
 mixed Gaussian and plane waves approach.
 https://doi.org/10.1016/j.cpc.2004.12.014

 Frigo, M; Johnson, SG. 
 PROCEEDINGS OF THE IEEE, 93 (2), 216-231 (2005). 
 The design and implementation of FFTW3.
 https://doi.org/10.1109/JPROC.2004.840301

 Hartwigsen, C; Goedecker, S; Hutter, J. 
 PHYSICAL REVIEW B, 58 (7), 3641-3662 (1998). 
 Relativistic separable dual-space Gaussian pseudopotentials from H to Rn.
 https://doi.org/10.1103/PhysRevB.58.3641

 Zhang, YK; Yang, WT. 
 PHYSICAL REVIEW LETTERS, 80 (4), 890-890 (1998). 
 Comment on Generalized gradient approximation made simple.
 https://doi.org/10.1103/PhysRevLett.80.890

 Lippert, G; Hutter, J; Parrinello, M. 
 MOLECULAR PHYSICS, 92 (3), 477-487 (1997). 
 A hybrid Gaussian and plane wave density functional scheme.
 https://doi.org/10.1080/002689797170220

 Perdew, JP; Burke, K; Ernzerhof, M. 
 PHYSICAL REVIEW LETTERS, 77 (18), 3865-3868 (1996). 
 Generalized gradient approximation made simple.
 https://doi.org/10.1103/PhysRevLett.77.3865

 Goedecker, S; Teter, M; Hutter, J. 
 PHYSICAL REVIEW B, 54 (3), 1703-1710 (1996). 
 Separable dual-space Gaussian pseudopotentials.
 https://doi.org/10.1103/PhysRevB.54.1703


 -------------------------------------------------------------------------------
 -                                                                             -
 -                                T I M I N G                                  -
 -                                                                             -
 -------------------------------------------------------------------------------
 SUBROUTINE                       CALLS  ASD         SELF TIME        TOTAL TIME
                                MAXIMUM       AVERAGE  MAXIMUM  AVERAGE  MAXIMUM
 CP2K                                 1  1.0    0.114    0.127   20.712   20.715
 qs_energies                          1  2.0    0.005    0.010   19.942   19.950
 scf_env_do_scf                       1  3.0    0.002    0.006   19.049   19.055
 scf_env_do_scf_inner_loop           24  4.0    0.009    0.012   19.046   19.053
 qs_ks_update_qs_env                 24  5.0    0.001    0.001    8.256    8.262
 rebuild_ks_matrix                   24  6.0    0.002    0.003    8.251    8.254
 qs_ks_build_kohn_sham_matrix        24  7.0    0.011    0.016    8.248    8.253
 rs_pw_transfer                     246  9.5    0.005    0.007    5.807    6.017
 qs_rho_update_rho                   25  5.0    0.000    0.002    5.884    5.888
 calculate_rho_elec                  25  6.0    0.022    0.025    5.884    5.888
 density_rs2pw                       25  7.0    0.004    0.005    4.433    4.652
 sum_up_and_integrate                24  8.0    0.026    0.035    4.311    4.315
 integrate_v_rspace                  24  9.0    0.001    0.002    4.285    4.297
 pw_transfer                        365  9.0    0.069    0.077    3.921    4.079
 potential_pw2rs                     24 10.0    0.003    0.004    3.908    3.921
 fft_wrap_pw1pw2                    317 10.0    0.003    0.005    3.760    3.918
 fft_wrap_pw1pw2_530                121 10.2    0.324    0.389    3.447    3.600
 fft3d_ps                           317 12.0    1.566    1.741    2.902    3.124
 qs_vxc_create                       24  8.0    0.003    0.005    2.711    2.802
 xc_vxc_pw_create                    24  9.0    0.070    0.085    2.708    2.799
 gspace_mixing                       22  5.0    0.020    0.023    2.628    2.631
 qs_scf_new_mos                      24  5.0    0.003    0.005    2.553    2.566
 eigensolver                         24  6.0    0.003    0.005    2.376    2.378
 cp_fm_diag_elpa                     24  7.0    0.000    0.000    2.120    2.128
 xc_rho_set_and_dset_create          24 10.0    0.043    0.059    1.895    2.112
 rs_pw_transfer_RS2PW_530            26  8.9    1.199    1.345    1.930    2.111
 cp_fm_redistribute_end              24  8.0    1.829    2.093    1.831    2.095
 cp_fm_diag_elpa_base                24  8.0    0.255    2.051    0.259    2.075
 mp_waitany                        2178 11.4    1.432    2.031    1.432    2.031
 rs_pw_transfer_PW2RS_530            24 12.0    1.265    1.325    1.958    2.016
 broyden_mixing                      22  6.0    1.921    1.953    1.961    1.977
 pw_nn_compose_r                    144 10.5    0.770    0.814    1.123    1.691
 grid_collocate_task_list            25  7.0    1.361    1.467    1.361    1.467
 mp_alltoall_z22v                   317 14.0    1.008    1.417    1.008    1.417
 xc_functional_eval                  24 11.0    0.000    0.001    1.187    1.381
 pbe_lda_eval                        24 12.0    1.186    1.381    1.186    1.381
 mp_sendrecv_dm2                    288 11.5    0.353    0.985    0.353    0.985
 mp_waitall_1                     21753 11.5    0.760    0.880    0.760    0.880
 yz_to_x                            150 12.5    0.121    0.168    0.597    0.864
 x_to_yz                            167 13.5    0.198    0.237    0.729    0.848
 mp_sum_d                           617  3.7    0.321    0.640    0.321    0.640
 init_scf_run                         1  3.0    0.002    0.003    0.585    0.589
 rs_pw_transfer_PW2RS_180            24 12.0    0.222    0.248    0.472    0.570
 rs_pw_transfer_PW2RS_60             24 12.0    0.127    0.180    0.392    0.431
 pw_poisson_solve                    24  8.0    0.164    0.174    0.420    0.422
 -------------------------------------------------------------------------------

 The number of warnings for this run is : 2
 
 -------------------------------------------------------------------------------
  **** **** ******  **  PROGRAM ENDED AT                 2025-10-22 11:40:28.859
 ***** ** ***  *** **   PROGRAM RAN ON                                 nid003564
 **    ****   ******    PROGRAM RAN BY                                xr223_ukcp
 ***** **    ** ** **   PROGRAM PROCESS ID                                207554
  **** **  *******  **  PROGRAM STOPPED IN /mnt/lustre/a2fs-work3/work/e89/e89/x
                                           r223_ukcp/BINDING-ENERGY-DARREN/bindi
                                           ng-energy/1-leg/s+1.00/d+3.50
 DBCSR| CPU Multiplication driver                                           BLAS
 DBCSR| Multrec recursion limit                                              512
 DBCSR| Multiplication stack size                                           1000
 DBCSR| Maximum elements for images                                    UNLIMITED
 DBCSR| Multiplicative factor virtual images                                   1
 DBCSR| Use multiplication densification                                       T
 DBCSR| Multiplication size stacks                                             3
 DBCSR| Use memory pool for CPU allocation                                     F
 DBCSR| Number of 3D layers                                               SINGLE
 DBCSR| Use MPI memory allocation                                              F
 DBCSR| Use RMA algorithm                                                      F
 DBCSR| Use Communication thread                                               T
 DBCSR| Communication thread load                                             87
 DBCSR| MPI: My node id                                                        0
 DBCSR| MPI: Number of nodes                                                 128
 DBCSR| OMP: Current number of threads                                         1
 DBCSR| OMP: Max number of threads                                             1
 DBCSR| Split modifier for TAS multiplication algorithm                  1.0E+00


  **** **** ******  **  PROGRAM STARTED AT               2025-10-22 11:40:54.085
 ***** ** ***  *** **   PROGRAM STARTED ON                             nid003154
 **    ****   ******    PROGRAM STARTED BY                            xr223_ukcp
 ***** **    ** ** **   PROGRAM PROCESS ID                                 95266
  **** **  *******  **  PROGRAM STARTED IN /mnt/lustre/a2fs-work3/work/e89/e89/x
                                           r223_ukcp/BINDING-ENERGY-DARREN/bindi
                                           ng-energy/1-leg/s+1.00/d+3.50

 CP2K| version string:                                          CP2K version 9.1
 CP2K| source code revision number:                                  git:d8d7100
 CP2K| cp2kflags: omp libint fftw3 libxc elpa parallel mpi3 scalapack plumed2 mk
 CP2K|            l
 CP2K| is freely available from                            https://www.cp2k.org/
 CP2K| Program compiled at                       Thu 08 Jun 2023 08:54:13 AM BST
 CP2K| Program compiled on                                                  ln03
 CP2K| Program compiled for                                              ARCHER2
 CP2K| Data directory path       /work/y07/shared/apps/core/cp2k/cp2k-9.1.0/data
 CP2K| Input file name                                              cp2k_sub.inp

 GLOBAL| Force Environment number                                              1
 GLOBAL| Basis set file name                                      GTH_BASIS_SETS
 GLOBAL| Potential file name                                           POTENTIAL
 GLOBAL| MM Potential file name                                     MM_POTENTIAL
 GLOBAL| Coordinate file name                                           init.pdb
 GLOBAL| Method name                                                        CP2K
 GLOBAL| Project name                                                    MAT-H2O
 GLOBAL| Run type                                                         ENERGY
 GLOBAL| FFT library                                                       FFTW3
 GLOBAL| Diagonalization library                                            ELPA
 GLOBAL| Minimum number of eigenvectors for ELPA usage                        16
 GLOBAL| Orthonormality check for eigenvectors                          DISABLED
 GLOBAL| Matrix multiplication library                                 ScaLAPACK
 GLOBAL| All-to-all communication in single precision                          F
 GLOBAL| FFTs using library dependent lengths                                  F
 GLOBAL| Grid backend                                                       AUTO
 GLOBAL| Global print level                                                  LOW
 GLOBAL| MPI I/O enabled                                                       T
 GLOBAL| Total number of message passing processes                           128
 GLOBAL| Number of threads for this process                                    1
 GLOBAL| This output is from process                                           0
 GLOBAL| Stack size for threads created by OpenMP (OMP_STACKSIZE)        default
 GLOBAL| CPU model name                          AMD EPYC 7742 64-Core Processor
 GLOBAL| CPUID                                                              1002

 MEMORY| system memory details [Kb]
 MEMORY|                        rank 0           min           max       average
 MEMORY| MemTotal            263266868     263266868     263266868     263266868
 MEMORY| MemFree             239831940     239831940     239831940     239831940
 MEMORY| Buffers                182344        182344        182344        182344
 MEMORY| Cached                1529720       1529720       1529720       1529720
 MEMORY| Slab                  4435756       4435756       4435756       4435756
 MEMORY| SReclaimable          1755176       1755176       1755176       1755176
 MEMORY| MemLikelyFree       243299180     243299180     243299180     243299180


 *******************************************************************************
 *******************************************************************************
 **                                                                           **
 **     #####                         ##              ##                      **
 **    ##   ##            ##          ##              ##                      **
 **   ##     ##                       ##            ######                    **
 **   ##     ##  ##   ##  ##   #####  ##  ##   ####   ##    #####    #####    **
 **   ##     ##  ##   ##  ##  ##      ## ##   ##      ##   ##   ##  ##   ##   **
 **   ##  ## ##  ##   ##  ##  ##      ####     ###    ##   ######   ######    **
 **    ##  ###   ##   ##  ##  ##      ## ##      ##   ##   ##       ##        **
 **     #######   #####   ##   #####  ##  ##  ####    ##    #####   ##        **
 **           ##                                                    ##        **
 **                                                                           **
 **                                                ... make the atoms dance   **
 **                                                                           **
 **            Copyright (C) by CP2K developers group (2000-2021)             **
 **                      J. Chem. Phys. 152, 194103 (2020)                    **
 **                                                                           **
 *******************************************************************************


 TOTAL NUMBERS AND MAXIMUM NUMBERS

  Total number of            - Atomic kinds:                                   3
                             - Atoms:                                         67
                             - Shell sets:                                    70
                             - Shells:                                       338
                             - Primitive Cartesian functions:                341
                             - Cartesian basis functions:                    938
                             - Spherical basis functions:                    872

  Maximum angular momentum of- Orbital basis functions:                        2
                             - Local part of the GTH pseudopotential:          2
                             - Non-local part of the GTH pseudopotential:      0


 SCF PARAMETERS         Density guess:                                   RESTART
                        --------------------------------------------------------
                        max_scf:                                              20
                        max_scf_history:                                       0
                        max_diis:                                              4
                        --------------------------------------------------------
                        eps_scf:                                        5.00E-07
                        eps_scf_history:                                0.00E+00
                        eps_diis:                                       1.00E-01
                        eps_eigval:                                     1.00E-05
                        --------------------------------------------------------
                        level_shift [a.u.]:                                 0.00
                        added MOs                                        20    0
                        --------------------------------------------------------
                        Mixing method:                            BROYDEN_MIXING
                                                charge density mixing in g-space
                        --------------------------------------------------------
                        Smear method:                                FERMI_DIRAC
                        Electronic temperature [K]:                        300.0
                        Electronic temperature [a.u.]:                  9.50E-04
                        Accuracy threshold:                             1.00E-10
                        --------------------------------------------------------
                        Outer loop SCF in use 
                        No variables optimised in outer loop
                        eps_scf                                         5.00E-07
                        max_scf                                               20
                        No outer loop optimization
                        step_size                                       5.00E-01

 Number of electrons:                                                        264
 Number of occupied orbitals:                                                132
 Number of molecular orbitals:                                               152

 Number of orbital functions:                                                872
 Number of independent orbital functions:                                    872

 Extrapolation method: initial_guess


 SCF WAVEFUNCTION OPTIMIZATION

  Step     Update method      Time    Convergence         Total energy    Change
  ------------------------------------------------------------------------------
     1 NoMix/Diag. 0.40E+00    0.5     0.00000085      -382.1983714647 -3.82E+02
     2 Broy./Diag. 0.40E+00    0.7     0.00000056      -382.1983726871 -1.22E-06
     3 Broy./Diag. 0.40E+00    0.7     0.00000019      -382.1983730036 -3.16E-07

  *** SCF run converged in     3 steps ***


  Electronic density on regular grids:       -264.0000000000        0.0000000000
  Core density on regular grids:              263.9999999998       -0.0000000002
  Total charge density on r-space grids:       -0.0000000002
  Total charge density g-space grids:          -0.0000000002

  Overlap energy of the core charge distribution:               0.00000793211145
  Self energy of the core charge distribution:               -897.78766230971098
  Core Hamiltonian energy:                                    278.64844674386671
  Hartree energy:                                             353.03026917026853
  Exchange-correlation energy:                               -115.91160332598206
  Dispersion energy:                                           -0.17783121418188
  Electronic entropic energy:                                  -0.00000000000000
  Fermi energy:                                                -0.06921874422300

  Total energy:                                              -382.19837300362832

  outer SCF iter =    1 RMS gradient =   0.19E-06 energy =       -382.1983730036
  outer SCF loop converged in   1 iterations or    3 steps


 ENERGY| Total FORCE_EVAL ( QS ) energy [a.u.]:             -382.198373003628319

 -------------------------------------------------------------------------------
 -                                                                             -
 -                                DBCSR STATISTICS                             -
 -                                                                             -
 -------------------------------------------------------------------------------
 COUNTER                                    TOTAL       BLAS       SMM       ACC
 flops     9 x    24 x     9                15552     100.0%      0.0%      0.0%
 flops     9 x    24 x    22                19008     100.0%      0.0%      0.0%
 flops    22 x    24 x     9                19008     100.0%      0.0%      0.0%
 flops    22 x    24 x    22                23232     100.0%      0.0%      0.0%
 flops     9 x    22 x    24                38016     100.0%      0.0%      0.0%
 flops    22 x     9 x    24                38016     100.0%      0.0%      0.0%
 flops     9 x     9 x    24                46656     100.0%      0.0%      0.0%
 flops     9 x    32 x     9                82944     100.0%      0.0%      0.0%
 flops    22 x    22 x    24                92928     100.0%      0.0%      0.0%
 flops    22 x    32 x     9               101376     100.0%      0.0%      0.0%
 flops     9 x    32 x    22               101376     100.0%      0.0%      0.0%
 flops    22 x    32 x    22               123904     100.0%      0.0%      0.0%
 flops     9 x    22 x    32               202752     100.0%      0.0%      0.0%
 flops    22 x     9 x    32               202752     100.0%      0.0%      0.0%
 flops     9 x     9 x    32               248832     100.0%      0.0%      0.0%
 flops    22 x    22 x    32               495616     100.0%      0.0%      0.0%
 flops     9 x    24 x    13               718848     100.0%      0.0%      0.0%
 flops    13 x    24 x     9               718848     100.0%      0.0%      0.0%
 flops    13 x    24 x    22               878592     100.0%      0.0%      0.0%
 flops    22 x    24 x    13               878592     100.0%      0.0%      0.0%
 flops     9 x    13 x    24              1437696     100.0%      0.0%      0.0%
 flops    13 x     9 x    24              1437696     100.0%      0.0%      0.0%
 flops    22 x    13 x    24              1757184     100.0%      0.0%      0.0%
 flops    13 x    22 x    24              1757184     100.0%      0.0%      0.0%
 flops    13 x    32 x     9              3833856     100.0%      0.0%      0.0%
 flops     9 x    32 x    13              3833856     100.0%      0.0%      0.0%
 flops    22 x    32 x    13              4685824     100.0%      0.0%      0.0%
 flops    13 x    32 x    22              4685824     100.0%      0.0%      0.0%
 flops     9 x    13 x    32              7667712     100.0%      0.0%      0.0%
 flops    13 x     9 x    32              7667712     100.0%      0.0%      0.0%
 flops    22 x    13 x    32              9371648     100.0%      0.0%      0.0%
 flops    13 x    22 x    32              9371648     100.0%      0.0%      0.0%
 flops    13 x    24 x    13             33226752     100.0%      0.0%      0.0%
 flops    13 x    13 x    24             67491840     100.0%      0.0%      0.0%
 flops    13 x    32 x    13            177209344     100.0%      0.0%      0.0%
 flops    13 x    13 x    32            359956480     100.0%      0.0%      0.0%
 flops inhomo. stacks                           0       0.0%      0.0%      0.0%
 flops total                       700.439104E+06     100.0%      0.0%      0.0%
 flops max/rank                     12.663040E+06     100.0%      0.0%      0.0%
 matmuls inhomo. stacks                         0       0.0%      0.0%      0.0%
 matmuls total                              68005     100.0%      0.0%      0.0%
 number of processed stacks                  5145     100.0%      0.0%      0.0%
 average stack size                                    13.2       0.0       0.0
 marketing flops                     1.034122E+09
 -------------------------------------------------------------------------------
 # multiplications                              5
 max memory usage/rank             306.270208E+06
 # max total images/rank                        2
 # max 3D layers                                1
 # MPI messages exchanged                   18560
 MPI messages size (bytes):
  total size                       191.979520E+06
  min size                           0.000000E+00
  max size                          60.840000E+03
  average size                      10.343725E+03
 MPI breakdown and total messages size (bytes):
             size <=      128               11440                        0
       128 < size <=     8192                   0                        0
      8192 < size <=    32768                5200                100733440
     32768 < size <=   131072                1920                 91246080
    131072 < size <=  4194304                   0                        0
   4194304 < size <= 16777216                   0                        0
  16777216 < size                               0                        0
 -------------------------------------------------------------------------------

 *** WARNING in dbcsr_mm.F:294 :: Using a non-square number of MPI ranks ***
 *** might lead to poor performance. Used ranks: 128 Suggested: 121 256  ***

 -------------------------------------------------------------------------------
 -                                                                             -
 -                      DBCSR MESSAGE PASSING PERFORMANCE                      -
 -                                                                             -
 -------------------------------------------------------------------------------
 ROUTINE             CALLS      AVE VOLUME [Bytes]
 MP_Bcast               37                     12.
 MP_Allreduce          120                     21.
 MP_Alltoall           133                  50888.
 MP_ISend              320                   5897.
 MP_IRecv              320                   5177.
 -------------------------------------------------------------------------------

 -------------------------------------------------------------------------------
 -                                                                             -
 -                                GRID STATISTICS                              -
 -                                                                             -
 -------------------------------------------------------------------------------
 LP    KERNEL             BACKEND                              COUNT     PERCENT
 4     collocate ortho    REF                                 188284      51.48%
 4     integrate ortho    REF                                 141213      38.61%
 0     collocate general  REF                                   8576       2.34%
 2     collocate ortho    REF                                   8204       2.24%
 3     collocate ortho    REF                                   6816       1.86%
 2     integrate ortho    REF                                   6153       1.68%
 3     integrate ortho    REF                                   5112       1.40%
 1     collocate ortho    REF                                    456       0.12%
 1     integrate ortho    REF                                    342       0.09%
 0     collocate ortho    REF                                    320       0.09%
 0     integrate ortho    REF                                    240       0.07%
 -------------------------------------------------------------------------------

 MEMORY| Estimated peak process memory [MiB]                                 294

 -------------------------------------------------------------------------------
 -                                                                             -
 -                         MESSAGE PASSING PERFORMANCE                         -
 -                                                                             -
 -------------------------------------------------------------------------------

 ROUTINE             CALLS      AVE VOLUME [Bytes]
 MP_Group                5
 MP_Bcast              285                2284788.
 MP_Allreduce          362                   2688.
 MP_Sync                13
 MP_Alltoall            68                2663889.
 MP_SendRecv            36                 409600.
 MP_ISendRecv         2667                  24960.
 MP_Wait              3057
 MP_comm_split           4
 MP_ISend              330                 376275.
 MP_IRecv              330                 376941.
 MP_Recv                15                  69760.
 -------------------------------------------------------------------------------


 -------------------------------------------------------------------------------
 -                                                                             -
 -                           R E F E R E N C E S                               -
 -                                                                             -
 -------------------------------------------------------------------------------
 
 CP2K version 9.1, the CP2K developers group (2021).
 CP2K is freely available from https://www.cp2k.org/ .

 Kuehne,Thomas D.; Iannuzzi,Marcella; Del Ben,Mauro;
 Rybkin,Vladimir V.; Seewald,Patrick; Stein,Frederick; Laino,Teodoro;
 Khaliullin,Rustam Z.; Schuett,Ole; Schiffmann,Florian; Golze,Dorothea;
 Wilhelm,Jan; Chulkov,Sergey; Bani-Hashemian,Mohammad Hossein;
 Weber,Valery; Borstnik,Urban; Taillefumier,Mathieu;
 Jakobovits,Alice Shoshana; Lazzaro,Alfio; Pabst,Hans; Mueller,Tiziano;
 Schade,Robert; Guidon,Manuel; Andermatt,Samuel; Holmberg,Nico;
 Schenter,Gregory K.; Hehn,Anna; Bussy,Augustin; Belleflamme,Fabian;
 Tabacchi,Gloria; Gloess,Andreas; Lass,Michael; Bethune,Iain;
 Mundy,Christopher J.; Plessl,Christian; Watkins,Matt;
 VandeVondele,Joost; Krack,Matthias; Hutter,Juerg. 
 The Journal of Chemical Physics, 152 (19), (2020). 
 CP2K: An electronic structure and molecular dynamics software package -
 Quickstep: Efficient and accurate electronic structure calculations.
 https://doi.org/10.1063/5.0007045

 Goerigk, Lars; Hansen, Andreas; Bauer, Christoph; Ehrlich, Stephan;
 Najibi, Asim; Grimme, Stefan. , 19 (48), (2017). 
 A look at the density functional theory zoo with the advanced GMTKN55 database
 for general main group thermochemistry, kinetics and noncovalent interactions.
 https://doi.org/10.1039/C7CP04913G

 Schuett, Ole; Messmer, Peter; Hutter, Juerg; VandeVondele, Joost. 
 Electronic Structure Calculations on Graphics Processing Units, John
 Wiley & Sons, Ltd, 173-190 (2016). 
 GPU-Accelerated Sparse Matrix-Matrix Multiplication for
 Linear Scaling Density Functional Theory.
 https://doi.org/10.1002/9781118670712.ch8

 Borstnik, U; VandeVondele, J; Weber, V; Hutter, J. 
 PARALLEL COMPUTING, 40 (5-6), 47-58 (2014). 
 Sparse matrix multiplication: The distributed block-compressed sparse
 row library.
 https://doi.org/10.1016/j.parco.2014.03.012

 Hutter, J; Iannuzzi, M; Schiffmann, F; VandeVondele, J. 
 WIREs Comput Mol Sci., 4 (1), 15-25 (2014). 
 CP2K: atomistic simulations of condensed matter systems.
 https://doi.org/10.1002/wcms.1159

 Marek, A; Blum, V; Johanni, R; Havu, V; Lang, B; Auckenthaler, T;
 Heinecke, A; Bungartz, H; Lederer, H. 
 Journal of Physics: Condensed Matter, 26 (21), (2014). 
 The ELPA library: scalable parallel eigenvalue solutions for
 electronic structure
 theory and computational science.
 https://doi.org/10.1088/0953-8984/26/21/213201

 Grimme, S; Ehrlich, S; Goerigk, L. 
 JOURNAL OF COMPUTATIONAL CHEMISTRY, 32, 1456 (2011). 
 Effect of the damping function in dispersion corrected density functional theory.
 https://doi.org/10.1002/jcc.21759

 Grimme, S; Antony, J; Ehrlich, S; Krieg, H. 
 JOURNAL OF CHEMICAL PHYSICS, 132 (15), 154104 (2010). 
 A consistent and accurate ab initio parametrization of density
 functional dispersion correction (DFT-D) for the 94 elements H-Pu.
 https://doi.org/10.1063/1.3382344

 VandeVondele, J; Hutter, J. 
 JOURNAL OF CHEMICAL PHYSICS, 127 (11), 114105 (2007). 
 Gaussian basis sets for accurate calculations on molecular systems in
 gas and condensed phases.
 https://doi.org/10.1063/1.2770708

 Krack, M. 
 THEORETICAL CHEMISTRY ACCOUNTS, 114 (1-3), 145-152 (2005). 
 Pseudopotentials for H to Kr optimized for gradient-corrected
 exchange-correlation functionals.
 https://doi.org/10.1007/s00214-005-0655-y

 VandeVondele, J; Krack, M; Mohamed, F; Parrinello, M; Chassaing, T;
 Hutter, J. COMPUTER PHYSICS COMMUNICATIONS, 167 (2), 103-128 (2005). 
 QUICKSTEP: Fast and accurate density functional calculations using a
 mixed Gaussian and plane waves approach.
 https://doi.org/10.1016/j.cpc.2004.12.014

 Frigo, M; Johnson, SG. 
 PROCEEDINGS OF THE IEEE, 93 (2), 216-231 (2005). 
 The design and implementation of FFTW3.
 https://doi.org/10.1109/JPROC.2004.840301

 Hartwigsen, C; Goedecker, S; Hutter, J. 
 PHYSICAL REVIEW B, 58 (7), 3641-3662 (1998). 
 Relativistic separable dual-space Gaussian pseudopotentials from H to Rn.
 https://doi.org/10.1103/PhysRevB.58.3641

 Zhang, YK; Yang, WT. 
 PHYSICAL REVIEW LETTERS, 80 (4), 890-890 (1998). 
 Comment on Generalized gradient approximation made simple.
 https://doi.org/10.1103/PhysRevLett.80.890

 Lippert, G; Hutter, J; Parrinello, M. 
 MOLECULAR PHYSICS, 92 (3), 477-487 (1997). 
 A hybrid Gaussian and plane wave density functional scheme.
 https://doi.org/10.1080/002689797170220

 Perdew, JP; Burke, K; Ernzerhof, M. 
 PHYSICAL REVIEW LETTERS, 77 (18), 3865-3868 (1996). 
 Generalized gradient approximation made simple.
 https://doi.org/10.1103/PhysRevLett.77.3865

 Goedecker, S; Teter, M; Hutter, J. 
 PHYSICAL REVIEW B, 54 (3), 1703-1710 (1996). 
 Separable dual-space Gaussian pseudopotentials.
 https://doi.org/10.1103/PhysRevB.54.1703


 -------------------------------------------------------------------------------
 -                                                                             -
 -                                T I M I N G                                  -
 -                                                                             -
 -------------------------------------------------------------------------------
 SUBROUTINE                       CALLS  ASD         SELF TIME        TOTAL TIME
                                MAXIMUM       AVERAGE  MAXIMUM  AVERAGE  MAXIMUM
 CP2K                                 1  1.0    0.115    0.126    3.938    3.942
 qs_energies                          1  2.0    0.005    0.010    3.267    3.275
 scf_env_do_scf                       1  3.0    0.000    0.003    2.266    2.272
 scf_env_do_scf_inner_loop            3  4.0    0.009    0.012    2.265    2.272
 qs_ks_update_qs_env                  3  5.0    0.000    0.000    1.072    1.076
 rebuild_ks_matrix                    3  6.0    0.003    0.004    1.070    1.072
 qs_ks_build_kohn_sham_matrix         3  7.0    0.006    0.011    1.067    1.071
 rs_pw_transfer                      36  9.2    0.001    0.001    0.999    1.035
 qs_rho_update_rho                    4  5.0    0.000    0.002    1.002    1.004
 calculate_rho_elec                   4  6.0    0.004    0.005    1.002    1.004
 density_rs2pw                        4  7.0    0.003    0.004    0.766    0.797
 init_scf_run                         1  3.0    0.002    0.003    0.694    0.698
 pw_transfer                         51  8.9    0.009    0.011    0.591    0.630
 fft_wrap_pw1pw2                     45  9.9    0.001    0.002    0.569    0.607
 sum_up_and_integrate                 3  8.0    0.005    0.007    0.577    0.580
 integrate_v_rspace                   3  9.0    0.000    0.002    0.572    0.576
 fft_wrap_pw1pw2_530                 17 10.2    0.047    0.058    0.515    0.548
 potential_pw2rs                      3 10.0    0.000    0.000    0.520    0.524
 scf_env_initial_rho_setup            1  4.0    0.003    0.005    0.515    0.518
 fft3d_ps                            45 11.9    0.213    0.237    0.444    0.477
 rs_pw_transfer_RS2PW_530             5  8.6    0.208    0.232    0.436    0.469
 mp_waitany                         330 11.1    0.342    0.409    0.342    0.409
 qs_scf_new_mos                       3  5.0    0.001    0.002    0.359    0.363
 cp_fm_diag_elpa                      4  7.2    0.000    0.001    0.341    0.345
 qs_vxc_create                        3  8.0    0.003    0.004    0.330    0.342
 xc_vxc_pw_create                     3  9.0    0.010    0.013    0.327    0.340
 eigensolver                          3  6.0    0.001    0.002    0.334    0.335
 qs_init_subsys                       1  2.0    0.009    0.016    0.325    0.333
 qs_energies_init_hamiltonians        1  3.0    0.005    0.008    0.291    0.297
 cp_fm_redistribute_end               4  8.2    0.258    0.295    0.258    0.295
 cp_fm_diag_elpa_base                 4  8.1    0.035    0.285    0.035    0.289
 rs_pw_transfer_PW2RS_530             3 12.0    0.141    0.159    0.259    0.274
 xc_rho_set_and_dset_create           3 10.0    0.005    0.008    0.236    0.261
 mp_alltoall_z22v                    45 13.9    0.183    0.250    0.183    0.250
 grid_collocate_task_list             4  7.0    0.219    0.239    0.219    0.239
 qs_env_update_s_mstruct              1  4.0    0.000    0.001    0.220    0.236
 calculate_rho_core                   1  5.0    0.007    0.011    0.192    0.209
 pw_nn_compose_r                     18 10.5    0.096    0.103    0.143    0.209
 calculate_first_density_matrix       1  5.0    0.003    0.004    0.175    0.178
 xc_functional_eval                   3 11.0    0.000    0.000    0.149    0.172
 pbe_lda_eval                         3 12.0    0.149    0.172    0.149    0.172
 qs_dispersion_pairpot_init           1  3.0    0.010    0.134    0.144    0.169
 mp_waitall_1                      3287 11.5    0.133    0.165    0.133    0.165
 cp_fm_cholesky_decompose             1  4.0    0.151    0.157    0.151    0.157
 qs_env_setup                         1  3.0    0.003    0.007    0.140    0.156
 yz_to_x                             24 12.3    0.019    0.027    0.115    0.151
 qs_env_rebuild_pw_env                2  3.5    0.002    0.004    0.130    0.145
 mp_bcast_dv                          7  7.9    0.127    0.142    0.127    0.142
 pw_env_rebuild                       1  5.0    0.007    0.012    0.127    0.141
 x_to_yz                             21 13.5    0.025    0.030    0.112    0.138
 mp_sendrecv_dm2                     36 11.5    0.046    0.121    0.046    0.121
 create_qs_kind_set                   1  2.0    0.000    0.001    0.105    0.121
 read_qs_kind                         3  3.0    0.044    0.054    0.105    0.120
 gspace_mixing                        2  5.0    0.002    0.004    0.112    0.114
 make_basis_lowdin                    1  6.0    0.003    0.004    0.103    0.106
 pw_grid_setup                        5  6.0    0.001    0.003    0.103    0.105
 pw_grid_setup_internal               5  7.0    0.007    0.009    0.102    0.105
 parser_read_line                  9939  4.0    0.004    0.004    0.078    0.097
 mp_bcast_i                          86  6.0    0.057    0.097    0.057    0.097
 parser_read_line_low                15  5.1    0.007    0.039    0.074    0.093
 rs_pw_transfer_PW2RS_180             3 12.0    0.020    0.024    0.072    0.093
 broadcast_input_information         15  6.1    0.000    0.000    0.067    0.087
 rs_pw_transfer_RS2PW_180             4  9.0    0.023    0.030    0.072    0.079
 -------------------------------------------------------------------------------

 The number of warnings for this run is : 1
 
 -------------------------------------------------------------------------------
  **** **** ******  **  PROGRAM ENDED AT                 2025-10-22 11:41:03.267
 ***** ** ***  *** **   PROGRAM RAN ON                                 nid003154
 **    ****   ******    PROGRAM RAN BY                                xr223_ukcp
 ***** **    ** ** **   PROGRAM PROCESS ID                                 95266
  **** **  *******  **  PROGRAM STOPPED IN /mnt/lustre/a2fs-work3/work/e89/e89/x
                                           r223_ukcp/BINDING-ENERGY-DARREN/bindi
                                           ng-energy/1-leg/s+1.00/d+3.50
