LAMMPS (4 Feb 2025)
OMP_NUM_THREADS environment is not set. Defaulting to 1 thread. (src/comm.cpp:99)
  using 1 OpenMP thread(s) per MPI task
# LAMMPS script for continuing NVT simulation

atom_modify map yes
newton      on

read_restart nvt_prod.restart.880000
Reading restart file ...
  restart file = 4 Feb 2025, LAMMPS = 4 Feb 2025
  restoring atom style full from restart
  orthogonal box = (0 0 0) to (156.31812 150.41718 151.07317)
  16 by 8 by 8 MPI processor grid
  pair style symmetrix/mace stores no restart info
  11640 atoms
Finding 1-2 1-3 1-4 neighbors ...
  special bond factors lj:    0        0        0       
  special bond factors coul:  0        0        0       
     0 = max # of 1-2 neighbors
     0 = max # of 1-3 neighbors
     0 = max # of 1-4 neighbors
     1 = max # of special neighbors
  special bonds CPU = 4.111 seconds
  read_restart CPU = 4.270 seconds

pair_style  symmetrix/mace
pair_coeff  * * ../../../00-common/models/ch2o-dens-inv_swa-1-6-8.json C H O
Loading MACE model from '../../../00-common/models/ch2o-dens-inv_swa-1-6-8.json' ... success
  mapping LAMMPS type 1 (C) to MACE type 1
  mapping LAMMPS type 2 (H) to MACE type 0
  mapping LAMMPS type 3 (O) to MACE type 2

group graphene type 1
8640 atoms in group graphene
group H2O type 2 3
3000 atoms in group H2O

thermo 1000

######### NVT production for 80 ps #############

dump DUMP1 all atom 100 nvt_prod_11.lammpstrj
timestep 0.001
fix NVT1 graphene nvt temp 300 300 0.1
Resetting global fix info from restart file:
  fix style: nvt, fix ID: NVT1
fix NVT2 H2O nvt temp 300 300 0.1
Resetting global fix info from restart file:
  fix style: nvt, fix ID: NVT2
run 80000
All restart file global fix info was re-assigned
Neighbor list info ...
  update: every = 1 steps, delay = 0 steps, check = yes
  max neighbors/atom: 2000, page size: 100000
  master list distance cutoff = 8
  ghost atom cutoff = 8
  binsize = 4, bins = 40 38 38
  1 neighbor lists, perpetual/occasional/extra = 1 0 0
  (1) pair symmetrix/mace, perpetual
      attributes: full, newton on
      pair build: full/bin
      stencil: full/bin/3d
      bin: standard
Per MPI rank memory allocation (min/avg/max) = 5.921 | 6.209 | 8.116 Mbytes
   Step          Temp          E_pair         E_mol          TotEng         Press     
    880000   294.66478     -1809817        0             -1809373.7     -2198.9217    
    881000   301.33943     -1809811.8      0             -1809358.5     -2194.5773    
    882000   297.49515     -1809812.8      0             -1809365.2     -2206.8207    
    883000   296.89264     -1809812.4      0             -1809365.8     -2202.0534    
    884000   299.63462     -1809806.9      0             -1809356.1     -2191.9135    
    885000   295.37246     -1809807        0             -1809362.6     -2207.1455    
    886000   299.84848     -1809815.9      0             -1809364.8     -2200.3916    
    887000   303.35973     -1809811.2      0             -1809354.8     -2187.6838    
    888000   299.15401     -1809811.3      0             -1809361.3     -2190.4373    
    889000   299.44992     -1809812.3      0             -1809361.8     -2193.7787    
    890000   300.98152     -1809812.9      0             -1809360.1     -2196.8965    
    891000   297.18293     -1809809.3      0             -1809362.2     -2211.2669    
    892000   295.46998     -1809811.9      0             -1809367.4     -2202.8274    
    893000   301.4064      -1809815.7      0             -1809362.3     -2191.1124    
    894000   296.73839     -1809810.6      0             -1809364.2     -2202.0824    
    895000   298.74635     -1809805.8      0             -1809356.3     -2198.8754    
    896000   297.18284     -1809808.6      0             -1809361.5     -2199.5802    
    897000   299.45737     -1809815.9      0             -1809365.3     -2202.4127    
    898000   296.37568     -1809809.6      0             -1809363.7     -2212.9005    
    899000   299.21694     -1809803.6      0             -1809353.5     -2201.8292    
    900000   300.74429     -1809810.6      0             -1809358.1     -2196.6647    
    901000   300.4632      -1809812.7      0             -1809360.6     -2195.1722    
    902000   296.71446     -1809808.2      0             -1809361.8     -2204.0443    
    903000   298.61109     -1809816.9      0             -1809367.7     -2182.998     
    904000   300.35122     -1809807        0             -1809355.2     -2193.4246    
    905000   298.87801     -1809810.1      0             -1809360.5     -2198.0441    
    906000   301.10408     -1809804.8      0             -1809351.8     -2184.4926    
    907000   298.26751     -1809808.4      0             -1809359.7     -2204.1344    
    908000   296.58375     -1809813.5      0             -1809367.3     -2191.1982    
    909000   299.32375     -1809815.9      0             -1809365.6     -2210.2607    
    910000   295.89293     -1809807.7      0             -1809362.5     -2194.1902    
    911000   300.42143     -1809815.7      0             -1809363.8     -2196.1705    
    912000   299.05821     -1809815.2      0             -1809365.3     -2196.3214    
    913000   301.14272     -1809808.4      0             -1809355.3     -2185.6622    
    914000   300.04871     -1809811.2      0             -1809359.8     -2195.6985    
    915000   300.91432     -1809811.9      0             -1809359.2     -2195.6899    
    916000   299.00114     -1809817.2      0             -1809367.4     -2196.2168    
    917000   297.28374     -1809810.5      0             -1809363.2     -2213.2017    
    918000   303.46155     -1809812.2      0             -1809355.6     -2189.071     
    919000   300.08354     -1809807.8      0             -1809356.3     -2202.4137    
    920000   299.00945     -1809814.8      0             -1809364.9     -2194.7466    
    921000   297.90044     -1809814.7      0             -1809366.6     -2195.2053    
    922000   302.29141     -1809811        0             -1809356.2     -2194.2368    
    923000   297.7567      -1809818.8      0             -1809370.8     -2195.3373    
    924000   297.33327     -1809809.6      0             -1809362.2     -2198.0298    
    925000   301.21623     -1809810        0             -1809356.9     -2199.967     
    926000   302.6771      -1809816.1      0             -1809360.7     -2192.8305    
    927000   296.06653     -1809819.6      0             -1809374.1     -2203.7426    
    928000   296.70584     -1809816.2      0             -1809369.8     -2194.2558    
    929000   302.9407      -1809815.8      0             -1809360.1     -2199.0056    
    930000   300.60361     -1809813        0             -1809360.8     -2203.6488    
    931000   299.60947     -1809815.3      0             -1809364.6     -2195.6202    
    932000   302.21978     -1809813.5      0             -1809358.8     -2199.2401    
    933000   302.7163      -1809811.1      0             -1809355.6     -2184.913     
    934000   301.47022     -1809806.7      0             -1809353.2     -2196.8991    
    935000   301.7181      -1809810.8      0             -1809356.8     -2187.672     
    936000   299.00874     -1809816.8      0             -1809366.9     -2197.5892    
    937000   299.14087     -1809813.7      0             -1809363.7     -2182.2239    
    938000   303.05598     -1809813.4      0             -1809357.5     -2198.0058    
    939000   296.73145     -1809812.3      0             -1809365.9     -2209.6492    
    940000   298.85265     -1809811.3      0             -1809361.7     -2183.7492    
    941000   301.24315     -1809810.2      0             -1809357       -2205.4908    
    942000   298.00064     -1809815.5      0             -1809367.1     -2194.4776    
    943000   297.97235     -1809805.6      0             -1809357.3     -2203.8102    
    944000   299.88688     -1809810.5      0             -1809359.3     -2210.103     
    945000   298.97958     -1809812.3      0             -1809362.5     -2207.107     
    946000   302.06157     -1809807.8      0             -1809353.4     -2174.3492    
    947000   297.79345     -1809806.2      0             -1809358.2     -2206.4153    
    948000   298.5878      -1809808.4      0             -1809359.2     -2185.2454    
    949000   299.64311     -1809805.7      0             -1809354.9     -2188.4128    
    950000   300.98477     -1809815.3      0             -1809362.5     -2190.5975    
    951000   303.29873     -1809811.8      0             -1809355.5     -2197.9805    
    952000   299.35686     -1809809.6      0             -1809359.2     -2194.251     
    953000   301.25242     -1809814.7      0             -1809361.5     -2201.4285    
    954000   299.51756     -1809810.6      0             -1809360       -2195.7528    
    955000   299.2271      -1809804.8      0             -1809354.6     -2195.245     
    956000   297.20545     -1809816.3      0             -1809369.1     -2208.1118    
    957000   299.00258     -1809810.6      0             -1809360.8     -2202.8269    
    958000   303.11371     -1809814.7      0             -1809358.7     -2198.4401    
    959000   300.56316     -1809813.5      0             -1809361.3     -2186.4731    
    960000   302.63746     -1809808.4      0             -1809353.1     -2207.0187    
Loop time of 58682.9 on 1024 procs for 80000 steps with 11640 atoms

Performance: 0.118 ns/day, 203.760 hours/ns, 1.363 timesteps/s, 15.868 katom-step/s
100.0% CPU use with 1024 MPI tasks x 1 OpenMP threads

MPI task timing breakdown:
Section |  min time  |  avg time  |  max time  |%varavg| %total
---------------------------------------------------------------
Pair    | 0.14477    | 5215.7     | 42230      |13106.9 |  8.89
Bond    | 0.0031558  | 0.0072919  | 0.027567   |   7.0 |  0.00
Neigh   | 0.01991    | 0.1363     | 1.6643     |  66.2 |  0.00
Comm    | 0.50374    | 1776.3     | 16330      |8790.9 |  3.03
Output  | 0.69245    | 4.9829     | 10.084     | 125.1 |  0.01
Modify  | 6988.7     | 51678      | 58670      |5544.3 | 88.06
Other   |            | 7.551      |            |       |  0.01

Nlocal:        11.3672 ave         286 max           0 min
Histogram: 884 6 111 4 5 4 7 1 1 1
Nghost:        93.0625 ave        1621 max           0 min
Histogram: 770 185 37 6 8 8 2 4 2 2
Neighs:              0 ave           0 max           0 min
Histogram: 1024 0 0 0 0 0 0 0 0 0
FullNghs:      1163.31 ave       53123 max           0 min
Histogram: 955 46 4 3 6 5 2 1 1 1

Total # of neighbors = 1191228
Ave neighs/atom = 102.33918
Ave special neighs/atom = 0
Neighbor list builds = 3667
Dangerous builds = 0

write_restart nvt_prod.restart.*
System init for write_restart ...
write_data nvt_prod_final.lammps-data
System init for write_data ...

Total wall time: 16:18:26
