LAMMPS data file via write_data, version 4 Feb 2025, timestep = 960000, units = metal

11640 atoms
3 atom types

0 156.31811999999996 xlo xhi
0 150.41718110202703 ylo yhi
0 151.07316997686289 zlo zhi

Masses

1 12.01099999691024
2 1.007999999740698
3 15.99899999588435

Atoms # full

314 0 1 0 3.4462939719290873 1.215991941882857 143.42321294928732 -2 15 1
318 0 1 0 3.4536544169856507 3.7707059860211003 143.2486368844279 -2 15 1
317 0 1 0 1.978449967422359 3.7683156954488766 143.21499245719272 -2 15 1
80 0 1 0 1.31072566841416 2.5049420229440154 143.30114558050477 -2 15 1
319 0 1 0 4.172091036879674 2.5001047715021496 143.36478449023906 -2 15 1
313 0 1 0 2.00689164082196 1.2711832267884944 143.39085789871314 -2 15 1
76 0 1 0 1.284997804732231 0.013731883529601419 143.42098142064893 -2 15 1
320 0 1 0 5.658405809074678 2.4905764994289 143.41088127002004 -2 15 1
557 0 1 0 6.330022900715517 3.8021064104614104 143.3877512438857 -2 15 1
558 0 1 0 7.770747467620044 3.782447174290644 143.4103516004955 -2 15 1
559 0 1 0 8.544205118844578 2.5544579105426872 143.5575252444751 -2 15 1
553 0 1 0 6.365607530117016 1.2600968789737947 143.43297058646516 -2 15 1
554 0 1 0 7.835885652780573 1.2698884975662281 143.5449490721837 -2 15 1
555 0 1 0 8.534855839125292 0.02788256354938312 143.65280811527083 -2 15 1
321 0 1 0 1.9934308157903038 6.337342910952126 143.18975685658185 -2 15 1
322 0 1 0 3.431507386711565 6.291833993014885 143.14580110070733 -2 15 1
84 0 1 0 1.300442984220876 5.0326754479986935 143.1500337983702 -2 15 1
323 0 1 0 4.175022933769125 5.065337167049743 143.2426224232558 -2 15 1
88 0 1 0 1.212826443353497 7.526137758717917 143.17495038057106 -2 15 1
327 0 1 0 4.177063003672064 7.51915804462535 143.22152672794707 -2 15 1
325 0 1 0 1.974851351414344 8.757953524967625 143.13931384945184 -2 15 1
326 0 1 0 3.467767072065739 8.828039235432387 143.17063700830468 -2 15 1
562 0 1 0 7.836551528997598 6.310283067875059 143.40526298124615 -2 15 1
561 0 1 0 6.38200333937288 6.290458818142256 143.42363347472886 -2 15 1
324 0 1 0 5.648570934179553 5.0949348905388465 143.36077351815973 -2 15 1
563 0 1 0 8.522400309241869 5.0454822797008685 143.32111252180988 -2 15 1
566 0 1 0 7.768138717848487 8.752760941847527 143.2266390030665 -2 15 1
567 0 1 0 8.545504409482115 7.550237352295314 143.34518313607592 -2 15 1
328 0 1 0 5.578988272191876 7.542475182902678 143.3582205552609 -2 15 1
565 0 1 0 6.346099306266301 8.777291417059503 143.25562612388427 -2 15 1
92 0 1 0 1.247609830091782 10.049800614366964 142.9615339441656 -2 15 1
331 0 1 0 4.218397957267333 10.042767205161997 143.14386672522568 -2 15 1
329 0 1 0 1.9997234212177064 11.258432172669318 143.10961571673374 -2 15 1
330 0 1 0 3.4481450768963313 11.297198201223063 143.15247042883638 -2 15 1
96 0 1 0 1.322271493816574 12.523937275357214 143.04204288145718 -2 15 1
335 0 1 0 4.232257579094509 12.534576521246912 143.2137262469727 -2 15 1
333 0 1 0 2.065765234498508 13.819049783215805 143.10727109301683 -2 15 1
334 0 1 0 3.49400552100103 13.798247274885371 143.18522080112135 -2 15 1
332 0 1 0 5.655836266250917 10.078962223859756 143.17058586714722 -2 15 1
571 0 1 0 8.540524073382077 10.004739501700502 143.1950557012698 -2 15 1
570 0 1 0 7.798350682925719 11.287701566981276 143.28787823352377 -2 15 1
569 0 1 0 6.364256485623686 11.297290198675203 143.16878436020184 -2 15 1
336 0 1 0 5.655510952962217 12.579813366681671 143.22675713816912 -2 15 1
575 0 1 0 8.504142881869596 12.52542252301722 143.16524921297608 -2 15 1
573 0 1 0 6.365839143269373 13.814279501414065 143.23359229330038 -2 15 1
574 0 1 0 7.799069747467656 13.80137831481036 143.23161800399015 -2 15 1
100 0 1 0 1.3746020474436542 15.079753685626175 143.19430779411482 -2 15 1
339 0 1 0 4.225036132223984 15.055351212331448 143.22723198500964 -2 15 1
338 0 1 0 3.483531341748827 16.30180119305081 143.27366292400532 -2 15 1
337 0 1 0 2.0788369552173602 16.34122253065593 143.20877851676966 -2 15 1
104 0 1 0 1.3026873772044336 17.58522157726901 143.24631935229345 -2 15 1
343 0 1 0 4.196187762151556 17.49272186886676 143.27385483516807 -2 15 1
341 0 1 0 2.0142194273175793 18.801607647481088 143.1794221018984 -2 15 1
342 0 1 0 3.4135747818164957 18.740316258175028 143.22893679499956 -2 15 1
581 0 1 0 6.341560186261966 18.764142583313927 143.24139971443066 -2 15 1
582 0 1 0 7.776764415329936 18.761410860343215 143.2079096142699 -2 15 1
578 0 1 0 7.829071901450924 16.30624781872251 143.3105765267337 -2 15 1
579 0 1 0 8.52652448041771 15.009000202434821 143.21899858383713 -2 15 1
340 0 1 0 5.655927122550529 15.053135778884773 143.27181424887328 -2 15 1
583 0 1 0 8.508032100127746 17.575461619082915 143.1645692771806 -2 15 1
577 0 1 0 6.383675920454263 16.28566325866432 143.33364300810013 -2 15 1
344 0 1 0 5.641619566517115 17.52063973126351 143.4457611124365 -2 15 1
351 0 1 0 4.1920074394251206 22.537327100719388 143.12853252756196 -2 15 1
112 0 1 0 1.274850991117842 22.572059903138165 143.04283836231923 -2 15 1
345 0 1 0 1.9736606001157957 21.305925675999294 143.14422308275496 -2 15 1
346 0 1 0 3.4508461043997514 21.2699474643786 143.12111268254066 -2 15 1
347 0 1 0 4.085047457239964 20.01436147242754 143.17985222756494 -2 15 1
108 0 1 0 1.2484841515960765 20.062887353767586 143.17328293690477 -2 15 1
348 0 1 0 5.5206307504240355 20.04336885790838 143.2564366237311 -2 15 1
591 0 1 0 8.516118621274536 22.5072654533041 143.16780101264047 -2 15 1
352 0 1 0 5.607555907142872 22.510902105563826 143.16455374951755 -2 15 1
585 0 1 0 6.303769376098413 21.2861312266694 143.1378838958102 -2 15 1
586 0 1 0 7.80173708205371 21.26487384537204 143.1787289148228 -2 15 1
587 0 1 0 8.512778426583502 20.023387850667632 143.228026535215 -2 15 1
116 0 1 0 1.2965311868358647 25.0966342859181 143.11834743375059 -2 15 1
355 0 1 0 4.197147443496709 25.031831149700555 143.10744757976835 -2 15 1
349 0 1 0 1.9866372693206362 23.82960175284337 143.13000489110013 -2 15 1
350 0 1 0 3.498216987751293 23.80396391691149 143.12838089859412 -2 15 1
120 0 1 0 1.2583477754882189 27.575145423649474 143.20902861242885 -2 15 1
354 0 1 0 3.4581663708718233 26.297390060419495 143.22381700882076 -2 15 1
353 0 1 0 1.988958369555021 26.330962537289153 143.20071542117932 -2 15 1
359 0 1 0 4.175401591607061 27.57089563319037 143.30072588959388 -2 15 1
356 0 1 0 5.636839713725566 25.06029164050134 143.12951964029065 -2 15 1
595 0 1 0 8.502651800242978 25.01770182424233 143.24384270190652 -2 15 1
590 0 1 0 7.799652163828056 23.75907800386313 143.19031666035562 -2 15 1
589 0 1 0 6.325238442545171 23.797754479467375 143.10725873838896 -2 15 1
360 0 1 0 5.638387224796673 27.552788054650733 143.3028607534219 -2 15 1
599 0 1 0 8.559783892574396 27.560977427341726 143.29620051027132 -2 15 1
594 0 1 0 7.816135413306698 26.291740918595146 143.21833839092614 -2 15 1
593 0 1 0 6.3555579652492495 26.306823769445852 143.22903962359143 -2 15 1
357 0 1 0 1.996897112951743 28.813408740945537 143.2051300733247 -2 15 1
358 0 1 0 3.446975874273178 28.815147212411855 143.2960470780898 -2 15 1
124 0 1 0 1.2527250613537777 30.045646727546494 143.20234498615426 -2 15 1
363 0 1 0 4.152456348752515 30.058460075477342 143.38275687255546 -2 15 1
361 0 1 0 2.022853877770991 31.248922849447222 143.05846145492538 -2 15 1
362 0 1 0 3.417646366249216 31.302895410253154 143.28920609548175 -2 15 1
128 0 1 0 1.2792401877140676 32.51922751139514 143.11832716191734 -2 15 1
367 0 1 0 4.1689394797820425 32.56782261873753 143.2398371854829 -2 15 1
598 0 1 0 7.801961903230807 28.841757927847986 143.38475505698108 -2 15 1
597 0 1 0 6.324368251125468 28.840112287552966 143.34256480099899 -2 15 1
364 0 1 0 5.562733633932254 30.067842412563067 143.27641813817303 -2 15 1
603 0 1 0 8.552650361089109 30.039221434998996 143.29995818453577 -2 15 1
601 0 1 0 6.364489272738438 31.3085728464084 143.24030098553553 -2 15 1
602 0 1 0 7.824347583114249 31.3206357396451 143.30146048313586 -2 15 1
368 0 1 0 5.633836579449424 32.56644319825342 143.2243712141173 -2 15 1
607 0 1 0 8.51033857615513 32.562682513469014 143.46848846267596 -2 15 1
365 0 1 0 2.0024992905155927 33.760035768063354 143.13415036540673 -2 15 1
366 0 1 0 3.4619149611950304 33.78789035329307 143.16241058893843 -2 15 1
132 0 1 0 1.3019235111732803 35.051798238062304 143.20189399275185 -2 15 1
369 0 1 0 2.0487958566729563 36.2663652874455 143.25697591996894 -2 15 1
370 0 1 0 3.4885257377355665 36.28083939980824 143.31270545842685 -2 15 1
371 0 1 0 4.251595146763767 35.05702278500626 143.2255941962645 -2 15 1
136 0 1 0 1.3624644576220717 37.558553802780736 143.27571539822182 -2 15 1
375 0 1 0 4.212925429870727 37.5617327953453 143.2734975966052 -2 15 1
609 0 1 0 6.3885432691871635 36.354120039717515 143.26933934607843 -2 15 1
376 0 1 0 5.676558750184892 37.583959566769 143.27384635679866 -2 15 1
605 0 1 0 6.336983375381833 33.82469306295648 143.18683446378915 -2 15 1
606 0 1 0 7.783228869360778 33.797828674369185 143.41385697904227 -2 15 1
610 0 1 0 7.8024451591898565 36.3538432857214 143.305559725032 -2 15 1
372 0 1 0 5.6847918266091755 35.06076996016472 143.24832677811474 -2 15 1
611 0 1 0 8.500796481846189 35.05013910038997 143.3190591883165 -2 15 1
373 0 1 0 1.991848062744703 38.84785738266997 143.35984201321895 -2 15 1
377 0 1 0 2.015333307043113 41.327226827463136 143.49385217387274 -2 15 1
378 0 1 0 3.5222990916268637 41.31172133443427 143.3627005289195 -2 15 1
379 0 1 0 4.2612881031297345 40.01961289804079 143.368308120558 -2 15 1
140 0 1 0 1.2655390158675772 40.04632120683994 143.47235152220046 -2 15 1
374 0 1 0 3.4549744939430673 38.786399571089596 143.2953889761689 -2 15 1
380 0 1 0 5.667932338681899 40.06218190996115 143.25523333380227 -2 15 1
618 0 1 0 7.800166172254433 41.404239330280866 143.28959204579502 -2 15 1
617 0 1 0 6.369046721836752 41.36983062974297 143.30566924271497 -2 15 1
619 0 1 0 8.541145175176654 40.12786450658763 143.18946479983344 -2 15 1
614 0 1 0 7.8415200144000075 38.86455963598824 143.1952529287686 -2 15 1
613 0 1 0 6.4159480553502535 38.83498495836797 143.23103422447062 -2 15 1
615 0 1 0 8.529561643883335 37.60929123794828 143.1218405690202 -2 15 1
381 0 1 0 1.9988581307378024 43.82687078414391 143.34442639019707 -2 15 1
382 0 1 0 3.4086772499589757 43.82595717804226 143.3135738752583 -2 15 1
144 0 1 0 1.3004034765484278 42.58218653148284 143.39391028485608 -2 15 1
383 0 1 0 4.179598310450037 42.601210978130425 143.2487765743413 -2 15 1
385 0 1 0 2.0107570979888902 46.38674492990053 143.275942548839 -2 15 1
386 0 1 0 3.420706702407067 46.38560290254418 143.28267334935956 -2 15 1
148 0 1 0 1.280359999470292 45.082762545490255 143.3738633073225 -2 15 1
387 0 1 0 4.166890225876739 45.132196924069504 143.25413623792852 -2 15 1
622 0 1 0 7.788993243624798 43.88852318918306 143.3539476740094 -2 15 1
621 0 1 0 6.322911442577555 43.90819991921002 143.23896699123384 -2 15 1
384 0 1 0 5.6358818021767965 42.62102664441756 143.2511505564748 -2 15 1
623 0 1 0 8.477973014333264 42.64494909072982 143.41704850644126 -2 15 1
626 0 1 0 7.810796881498642 46.38932642347578 143.46373655173832 -2 15 1
625 0 1 0 6.357177544188136 46.3762986423521 143.37010041822353 -2 15 1
627 0 1 0 8.552549897572128 45.13411694641165 143.50695300775487 -2 15 1
388 0 1 0 5.603479851549201 45.12048456679169 143.2516166622402 -2 15 1
152 0 1 0 1.2926973118857612 47.63810449030149 143.21411107737583 -2 15 1
391 0 1 0 4.205072603373773 47.63316478007667 143.29454409799683 -2 15 1
389 0 1 0 2.012193367118377 48.89015434146676 143.2168189089111 -2 15 1
390 0 1 0 3.480648155399149 48.879126267482015 143.21999543335943 -2 15 1
156 0 1 0 1.2989699402130221 50.155981177500735 143.22486566525518 -2 15 1
395 0 1 0 4.203032967294736 50.13562076997948 143.2226265316256 -2 15 1
393 0 1 0 1.985554879069492 51.43569977292191 143.19644430192682 -2 15 1
394 0 1 0 3.4828342294911616 51.36967404203249 143.26059044583428 -2 15 1
392 0 1 0 5.657430561934142 47.635178785767714 143.31948240636117 -2 15 1
631 0 1 0 8.56050927970601 47.64979691442246 143.46345534101368 -2 15 1
629 0 1 0 6.396501277089519 48.87153233379043 143.33486409111015 -2 15 1
630 0 1 0 7.810747104513625 48.901231976661734 143.40526915547878 -2 15 1
396 0 1 0 5.685943269754833 50.13154573112708 143.32384083230698 -2 15 1
635 0 1 0 8.570844131479543 50.147992521465774 143.405609541802 -2 15 1
634 0 1 0 7.824016657733155 51.36910025448231 143.38114096431653 -2 15 1
633 0 1 0 6.3894003368611845 51.38301327081761 143.26520062301142 -2 15 1
160 0 1 0 1.2811149121354792 52.65204955823593 143.0633629811398 -2 15 1
399 0 1 0 4.204978344291034 52.632562808396145 143.20057916594547 -2 15 1
397 0 1 0 2.021608425043632 53.93903418867924 143.15708933223831 -2 15 1
164 0 1 0 1.265387939232164 55.17926326376069 143.27059511524595 -2 15 1
398 0 1 0 3.4485707182288428 53.89771969225946 143.2292519690711 -2 15 1
403 0 1 0 4.22758206108722 55.156335799863534 143.3959342186935 -2 15 1
401 0 1 0 2.0334833484097774 56.39739065880541 143.37282716424926 -2 15 1
402 0 1 0 3.508195868272864 56.38338828692567 143.43315070454332 -2 15 1
642 0 1 0 7.840526401818415 56.37606409252818 143.4564000107123 -2 15 1
637 0 1 0 6.406205918686231 53.86573579333961 143.36445004072772 -2 15 1
643 0 1 0 8.570397227648847 55.11943482873671 143.42767213928414 -2 15 1
400 0 1 0 5.6358298820490775 52.620368935718275 143.26456059869525 -2 15 1
639 0 1 0 8.51471748607116 52.577727233774986 143.39362895472877 -2 15 1
404 0 1 0 5.676748770392899 55.12862922357968 143.50161258278652 -2 15 1
638 0 1 0 7.847445103781704 53.904997406139074 143.43425253379198 -2 15 1
172 0 1 0 1.3296948013187853 60.14884557661002 143.38959680697312 -2 15 1
411 0 1 0 4.236730777960607 60.16120583757187 143.518741288925 -2 15 1
405 0 1 0 2.0448976695691363 58.92122350012764 143.3792283658128 -2 15 1
406 0 1 0 3.5036372233457476 58.90780095504072 143.4287081253619 -2 15 1
168 0 1 0 1.3273712557710116 57.701264959981266 143.28983206528451 -2 15 1
407 0 1 0 4.252359169993822 57.64129496563315 143.41449933639927 -2 15 1
408 0 1 0 5.721099384421162 57.6666372927006 143.45489184806138 -2 15 1
645 0 1 0 6.456530174386855 58.90315143301613 143.40997294001252 -2 15 1
412 0 1 0 5.71909672636155 60.121195325544505 143.5459645867488 -2 15 1
651 0 1 0 8.541595755020682 60.1444425186786 143.2784332106056 -2 15 1
646 0 1 0 7.858463934595438 58.862944064363155 143.3429044836858 -2 15 1
647 0 1 0 8.542496550884499 57.59878271498866 143.32911328187427 -2 15 1
641 0 1 0 6.378526008568875 56.40973100609277 143.54616662457187 -2 15 1
176 0 1 0 1.2730262776357468 62.645808306023746 143.50857422096942 -2 15 1
415 0 1 0 4.149163999476873 62.618772345400075 143.6116625406184 -2 15 1
409 0 1 0 1.9964934030855375 61.41038384332564 143.37497192846524 -2 15 1
410 0 1 0 3.435063021769595 61.3856465145356 143.47014061457492 -2 15 1
180 0 1 0 1.302944307195835 65.20462255908447 143.42539199664031 -2 15 1
414 0 1 0 3.432977050056846 63.89736870629791 143.60717273780924 -2 15 1
413 0 1 0 1.976373245037782 63.9484357752189 143.55959926948512 -2 15 1
419 0 1 0 4.1185550214358795 65.14810126552723 143.5835409866768 -2 15 1
650 0 1 0 7.810398859422864 61.39046482534866 143.4053902759075 -2 15 1
416 0 1 0 5.604120656098958 62.63583281399544 143.5663900331683 -2 15 1
655 0 1 0 8.53935020179644 62.63195670058121 143.32017700431578 -2 15 1
649 0 1 0 6.376897656249885 61.38732506782694 143.5367003943956 -2 15 1
420 0 1 0 5.59183293746764 65.14081530556675 143.4688820027514 -2 15 1
659 0 1 0 8.487290719932387 65.13892959076642 143.42141311477903 -2 15 1
654 0 1 0 7.762333713779192 63.8539966386933 143.3949574038244 -2 15 1
653 0 1 0 6.323340248966156 63.91729723211522 143.42926460446282 -2 15 1
417 0 1 0 1.9654582390917528 66.47022385068807 143.47493447829453 -2 15 1
418 0 1 0 3.4234032962778307 66.39837453984732 143.50751412629145 -2 15 1
184 0 1 0 1.2148744456191896 67.68066194773402 143.3678750689086 -2 15 1
423 0 1 0 4.177655727937814 67.65197588120442 143.48446570602383 -2 15 1
421 0 1 0 1.9916489708116734 68.8833871237521 143.40497942048742 -2 15 1
422 0 1 0 3.4127226986029413 68.91726022794933 143.32883776087195 -2 15 1
188 0 1 0 1.2573779212199332 70.14133195187004 143.38656153517468 -2 15 1
427 0 1 0 4.179715968179218 70.1704693593026 143.38617408355688 -2 15 1
658 0 1 0 7.806089620110377 66.35922913366055 143.50595848585505 -2 15 1
657 0 1 0 6.351077557476636 66.38875808553342 143.46408733609405 -2 15 1
424 0 1 0 5.654745049215026 67.67009462240004 143.5563320929586 -2 15 1
663 0 1 0 8.533717481531706 67.60976470271873 143.56220284332696 -2 15 1
662 0 1 0 7.8166705010282795 68.86869255809341 143.54019633255587 -2 15 1
661 0 1 0 6.374792826159345 68.9490044118298 143.56557394566465 -2 15 1
428 0 1 0 5.6343030182774845 70.18090714828685 143.43002463994208 -2 15 1
667 0 1 0 8.517549287817518 70.13917876761522 143.38214091215116 -2 15 1
425 0 1 0 2.0209791351961335 71.41146621130996 143.43173553728363 -2 15 1
426 0 1 0 3.4624207023682674 71.40577872953536 143.35206785195604 -2 15 1
192 0 1 0 1.3099500598098124 72.67726405077867 143.21235943241197 -2 15 1
429 0 1 0 2.020219201607894 73.92287029296489 143.16325133890902 -2 15 1
430 0 1 0 3.4576592533729635 73.87253096967962 143.23964014660964 -2 15 1
431 0 1 0 4.217591754324419 72.67955925999864 143.2993782811699 -2 15 1
196 0 1 0 1.317470861272006 75.18947332298119 143.15991372533827 -2 15 1
435 0 1 0 4.22895911529921 75.15449613978402 143.22637198471043 -2 15 1
671 0 1 0 8.511581010601185 72.69354835521966 143.2878082955528 -2 15 1
436 0 1 0 5.646590078686152 75.16389609800932 143.35135737704618 -2 15 1
666 0 1 0 7.867994731160344 71.39499420962662 143.36018232427088 -2 15 1
665 0 1 0 6.431665938833957 71.37699240567653 143.3610071012419 -2 15 1
670 0 1 0 7.832711895490904 73.96977836821164 143.24273283499932 -2 15 1
675 0 1 0 8.522196209563447 75.1936137292768 143.1536775756983 -2 15 1
669 0 1 0 6.383383572593791 73.8998656337097 143.28307251874548 -2 15 1
432 0 1 0 5.690281303090542 72.61001843770526 143.20819011562915 -2 15 1
437 0 1 0 2.0462823260943 79.00776731499164 143.08332080956606 -2 15 1
438 0 1 0 3.479178550181147 78.99458033276169 143.09992250001898 -2 15 1
434 0 1 0 3.4854520222875984 76.43914711078517 143.2205439778418 -2 15 1
200 0 1 0 1.318788581194455 77.70284278302026 143.19790093795052 -2 15 1
439 0 1 0 4.189757588369436 77.6839398097657 143.2712776145848 -2 15 1
433 0 1 0 2.043455581079198 76.4576431109688 143.22226568812866 -2 15 1
674 0 1 0 7.820256082197989 76.46911526491115 143.21345696506256 -2 15 1
679 0 1 0 8.551738034116951 77.71296001111634 143.2466945593407 -2 15 1
678 0 1 0 7.837733650378407 78.94437261053339 143.30433161607377 -2 15 1
440 0 1 0 5.673542616169776 77.68594862065359 143.26508806847448 -2 15 1
677 0 1 0 6.393559848243032 78.92452399844687 143.30062265645026 -2 15 1
673 0 1 0 6.359412072607258 76.43244794004059 143.2522397794085 -2 15 1
442 0 1 0 3.5129068518410853 81.5192105616086 143.0920189917242 -2 15 1
441 0 1 0 2.063715073117827 81.50794081844413 143.0769052537347 -2 15 1
204 0 1 0 1.3634932790750038 80.2345868602439 143.04233508478217 -2 15 1
443 0 1 0 4.243772080746347 80.26972824326994 143.20047203710274 -2 15 1
446 0 1 0 3.4850405941593143 84.02483033049191 143.30742961601914 -2 15 1
208 0 1 0 1.3184173457239798 82.6862533323388 143.2051910084533 -2 15 1
447 0 1 0 4.24035818436119 82.78129099192037 143.26395411793422 -2 15 1
445 0 1 0 2.0260771332187177 83.9889449396812 143.27418093179412 -2 15 1
681 0 1 0 6.409623801475056 81.51557041160946 143.26417638219718 -2 15 1
682 0 1 0 7.893228605436895 81.53003832453119 143.2664070713962 -2 15 1
444 0 1 0 5.695032138266403 80.23694938669415 143.26088104613984 -2 15 1
683 0 1 0 8.550390702729764 80.19908886296777 143.3489851485225 -2 15 1
685 0 1 0 6.389922643776666 84.0133183977155 143.2665461223026 -2 15 1
686 0 1 0 7.829258811556838 84.00880051302728 143.25041009623874 -2 15 1
687 0 1 0 8.611191999600205 82.71778696922004 143.29851568701102 -2 15 1
448 0 1 0 5.687811945518551 82.73741521424324 143.28087113755078 -2 15 1
212 0 1 0 1.3598534986432091 85.20671560675315 143.22382578625405 -2 15 1
451 0 1 0 4.221402801554731 85.2925581829751 143.29363401964713 -2 15 1
449 0 1 0 2.0757807442345273 86.47316151700366 143.18920737484245 -2 15 1
450 0 1 0 3.4948121444677716 86.55033859574523 143.25237001845372 -2 15 1
216 0 1 0 1.3180053998932293 87.71071416281421 143.16276554866525 -2 15 1
455 0 1 0 4.231454132736126 87.77056388917802 143.26160324963305 -2 15 1
453 0 1 0 2.0521309658090563 88.99296443861249 143.10962624261344 -2 15 1
454 0 1 0 3.48728095560014 88.99910409130902 143.1576984186877 -2 15 1
452 0 1 0 5.661981207096314 85.29296859644589 143.26839383601816 -2 15 1
691 0 1 0 8.59945188282881 85.21976941472394 143.2836045811008 -2 15 1
689 0 1 0 6.430535819996579 86.51150725869586 143.24487166147992 -2 15 1
690 0 1 0 7.88766506570533 86.50333502101728 143.15746307677279 -2 15 1
456 0 1 0 5.683983414354134 87.75982431082043 143.25897904353997 -2 15 1
695 0 1 0 8.610048641596121 87.79869809593103 143.26310688662775 -2 15 1
693 0 1 0 6.36274179118999 89.039857256532 143.2173762820785 -2 15 1
694 0 1 0 7.813852323095699 89.03538471259057 143.26893709400247 -2 15 1
220 0 1 0 1.2600614232215215 90.26674654114073 143.1721031124475 -2 15 1
459 0 1 0 4.182074589286257 90.25119915693189 143.1711132673829 -2 15 1
457 0 1 0 1.9749211731175327 91.5114616641537 143.07624762495792 -2 15 1
224 0 1 0 1.2645901722420827 92.73793789963976 143.10732469228094 -2 15 1
458 0 1 0 3.442916185756932 91.53762785585431 143.10409202433598 -2 15 1
463 0 1 0 4.194537169680889 92.75877517052582 142.9837999016948 -2 15 1
461 0 1 0 2.0308438347404785 93.99992110204322 143.1498936139203 -2 15 1
703 0 1 0 8.541146818732951 92.82551644686619 143.0899195401365 -2 15 1
698 0 1 0 7.772933794642409 91.55820211115277 143.20165820635572 -2 15 1
697 0 1 0 6.355823931488962 91.54964092019655 143.226814981521 -2 15 1
464 0 1 0 5.652349536898017 92.76900274358823 143.01682259933048 -2 15 1
460 0 1 0 5.65892504823627 90.2820613563959 143.2763343440233 -2 15 1
699 0 1 0 8.528407772712553 90.2857900687528 143.35872979704635 -2 15 1
232 0 1 0 1.300210180488142 97.75705535593542 143.09528528225837 -2 15 1
465 0 1 0 2.0485764269104436 96.49942953648683 143.21858247328174 -2 15 1
471 0 1 0 4.155275870507058 97.77573684691431 143.14348596280507 -2 15 1
466 0 1 0 3.451421180817248 96.48868686470503 143.10619481692666 -2 15 1
228 0 1 0 1.2914673952356999 95.24887390463601 143.2127709806971 -2 15 1
467 0 1 0 4.182506145932438 95.2644352253038 143.02954893985446 -2 15 1
462 0 1 0 3.458807556968445 94.03470181853885 143.03246227817561 -2 15 1
707 0 1 0 8.526758184000752 95.2758945998398 143.01614402849543 -2 15 1
706 0 1 0 7.791368371459189 96.55418197444168 143.05126204904508 -2 15 1
472 0 1 0 5.59723808268344 97.76506400357334 143.0175051082391 -2 15 1
711 0 1 0 8.531645955225066 97.75254795113626 143.05478606435813 -2 15 1
705 0 1 0 6.29663049271514 96.51554740068211 143.0091626187497 -2 15 1
468 0 1 0 5.595578465664843 95.264766387597 142.9377767020189 -2 15 1
702 0 1 0 7.838767088348837 94.10284834627548 143.0029866541711 -2 15 1
701 0 1 0 6.333629111534988 94.01419792794087 142.97299998161466 -2 15 1
236 0 1 0 1.3447844411825147 100.25405065260571 142.9718611194669 -2 15 1
475 0 1 0 4.153220357328259 100.27108796694421 143.12257460670338 -2 15 1
469 0 1 0 2.0209087943020636 98.98053391361915 142.98007130917492 -2 15 1
470 0 1 0 3.456855320622683 98.99861743248987 143.04551385852588 -2 15 1
473 0 1 0 2.0315714834615535 101.51698338074132 143.04276602174136 -2 15 1
474 0 1 0 3.467071058972357 101.50204384756408 143.1784680879641 -2 15 1
479 0 1 0 4.186815687766915 102.82051947917306 143.14368454019385 -2 15 1
240 0 1 0 1.3079370063211684 102.78779791851775 143.0737844854026 -2 15 1
715 0 1 0 8.478320022516455 100.31551635303835 143.04469790309466 -2 15 1
476 0 1 0 5.619653539501335 100.32541409798132 143.05845297737412 -2 15 1
710 0 1 0 7.813946103828436 99.04616755063266 143.02198186852868 -2 15 1
709 0 1 0 6.383761168956604 99.04953335876966 142.9454199982206 -2 15 1
714 0 1 0 7.754961995128618 101.59193524938829 143.02517739743894 -2 15 1
480 0 1 0 5.61910014186035 102.80211875782612 143.05319431683358 -2 15 1
713 0 1 0 6.301990262944262 101.568445652819 143.04750224830957 -2 15 1
719 0 1 0 8.480193882724876 102.87791684086324 142.97154007747005 -2 15 1
477 0 1 0 2.0531081551139168 104.03564939011832 143.15565400782813 -2 15 1
478 0 1 0 3.491728102338442 104.03051356576472 143.12865319212116 -2 15 1
4 0 1 0 1.2600452255616466 105.2911587093421 143.1478953525137 -2 14 1
243 0 1 0 4.209395670484047 105.33270310167333 142.98824355723278 -2 14 1
241 0 1 0 1.9828458997248957 106.55954279128139 143.13480457171133 -2 14 1
242 0 1 0 3.425574975716778 106.58087243987002 143.1000322422569 -2 14 1
8 0 1 0 1.294576508927177 107.78606905230282 143.3087230546965 -2 14 1
247 0 1 0 4.144343731730447 107.83863364480987 143.0626930894714 -2 14 1
717 0 1 0 6.333046148588979 104.04531668802775 143.05617971461882 -2 15 1
718 0 1 0 7.79321887063752 104.11460868157751 143.0397249308517 -2 15 1
244 0 1 0 5.611612645716778 105.30994030544264 142.97743447910844 -2 14 1
483 0 1 0 8.475823199142186 105.34015134903075 142.96623801004955 -2 14 1
481 0 1 0 6.292379943658002 106.59321913454447 142.9640000900366 -2 14 1
482 0 1 0 7.740214744005222 106.58069169131906 143.03194943294957 -2 14 1
248 0 1 0 5.5966734011154164 107.83756171082409 142.9706812464362 -2 14 1
487 0 1 0 8.48756544547192 107.81927738956493 142.93488365567796 -2 14 1
245 0 1 0 1.9571753487708017 109.07668353416844 143.35811012087643 -2 14 1
246 0 1 0 3.4382136540190547 109.10688365298897 143.1750514099677 -2 14 1
12 0 1 0 1.2355235397291433 110.27700342283185 143.49197158632273 -2 14 1
249 0 1 0 1.9829471209599072 111.56427644661366 143.45016915424662 -2 14 1
250 0 1 0 3.43809318122124 111.56274235930817 143.28532343320794 -2 14 1
251 0 1 0 4.159122823712865 110.32978626403974 143.1517574734999 -2 14 1
490 0 1 0 7.829939445193563 111.56552841753278 143.05070303437543 -2 14 1
252 0 1 0 5.668990339854431 110.29587372003883 143.07343277086972 -2 14 1
489 0 1 0 6.360275572223661 111.55380689995702 143.0769380375597 -2 14 1
485 0 1 0 6.3429535692310735 109.07294061108975 142.9325319461786 -2 14 1
486 0 1 0 7.809465992568454 109.12057146986265 143.0244428509177 -2 14 1
491 0 1 0 8.495091367729593 110.34922733602593 143.0374300614247 -2 14 1
20 0 1 0 1.2770594667671096 115.31908777864213 143.36884995079618 -2 14 1
258 0 1 0 3.4278201216897646 116.61761095984258 143.27738276524056 -2 14 1
257 0 1 0 1.989086441463966 116.61110592431402 143.31545084367937 -2 14 1
259 0 1 0 4.199679229325512 115.3436014601054 143.2990724244223 -2 14 1
254 0 1 0 3.4793524794961352 114.08233967262412 143.3735458779582 -2 14 1
253 0 1 0 2.030395345846337 114.02692489322371 143.43412479062846 -2 14 1
16 0 1 0 1.2626550382728752 112.8475121289505 143.4838348706248 -2 14 1
255 0 1 0 4.219823236720794 112.82505012222556 143.31938186888638 -2 14 1
497 0 1 0 6.339309126168509 116.58890947152865 143.39158343081425 -2 14 1
498 0 1 0 7.772395108984637 116.55572648297898 143.41440385991004 -2 14 1
260 0 1 0 5.6732661895822805 115.33513730201344 143.21114049030552 -2 14 1
499 0 1 0 8.513837183618998 115.36480787803016 143.3057303807169 -2 14 1
493 0 1 0 6.364927391614805 114.04268563081781 143.17274625720577 -2 14 1
494 0 1 0 7.8323456535623635 114.06081765845126 143.2185626688075 -2 14 1
256 0 1 0 5.65146084680315 112.81496957053825 143.23228439617003 -2 14 1
495 0 1 0 8.503410637452063 112.82992114888745 143.09018618812584 -2 14 1
261 0 1 0 1.943915383914164 119.11616503494459 143.36168473058805 -2 14 1
262 0 1 0 3.4748370773216615 119.09551789010403 143.4276308415838 -2 14 1
24 0 1 0 1.2841647680491683 117.87544322812268 143.3011448628741 -2 14 1
263 0 1 0 4.10361968018474 117.85187067264384 143.36726946942923 -2 14 1
266 0 1 0 3.403761346190745 121.60770303106024 143.46890471786907 -2 14 1
265 0 1 0 1.953261904188373 121.58659873209979 143.3666094313914 -2 14 1
28 0 1 0 1.1866737737765882 120.34280435404739 143.19796101946096 -2 14 1
267 0 1 0 4.15739059493085 120.36856387165791 143.54321210856938 -2 14 1
501 0 1 0 6.308810868086264 119.10129182493687 143.46351167870736 -2 14 1
502 0 1 0 7.744715743817191 119.06323282854876 143.47290252259756 -2 14 1
264 0 1 0 5.549159184139414 117.86185789741472 143.48604585719994 -2 14 1
503 0 1 0 8.504452239920573 117.82461896954294 143.3839788496761 -2 14 1
506 0 1 0 7.786236545961386 121.64680464143744 143.5141240898898 -2 14 1
505 0 1 0 6.34040367068151 121.65158039223702 143.59380797505636 -2 14 1
268 0 1 0 5.611247197248834 120.3842531427349 143.4805660782515 -2 14 1
507 0 1 0 8.480173086690034 120.36108331672438 143.49282060543885 -2 14 1
32 0 1 0 1.2061996819333605 122.81930469384517 143.4006570065202 -2 14 1
271 0 1 0 4.159754545480209 122.89568279375361 143.46377220269503 -2 14 1
269 0 1 0 1.954740800818248 124.08426386168173 143.44111725644484 -2 14 1
270 0 1 0 3.4593527215516295 124.1272908873745 143.4659359492583 -2 14 1
36 0 1 0 1.161830476399175 125.34963541755126 143.41054747408793 -2 14 1
275 0 1 0 4.151253185269932 125.35023974676493 143.37227398162383 -2 14 1
273 0 1 0 1.9203833535461412 126.57985208893099 143.45208278310596 -2 14 1
274 0 1 0 3.4134462516864144 126.59102120356897 143.3801704927227 -2 14 1
272 0 1 0 5.6347599626979985 122.91847642575101 143.52618044358948 -2 14 1
511 0 1 0 8.54823209076291 122.88006716025049 143.56042095371444 -2 14 1
509 0 1 0 6.326287450557675 124.1807794876666 143.5718171341796 -2 14 1
510 0 1 0 7.783228956188671 124.15095659518803 143.53690739680712 -2 14 1
276 0 1 0 5.611114098230025 125.4412679734682 143.4440566017587 -2 14 1
515 0 1 0 8.497310736198688 125.41908574585922 143.54637909648434 -2 14 1
513 0 1 0 6.344204812949346 126.70113434522237 143.38054454760103 -2 14 1
514 0 1 0 7.794368489531158 126.67227128002757 143.4285926724393 -2 14 1