LAMMPS (4 Feb 2025)
OMP_NUM_THREADS environment is not set. Defaulting to 1 thread. (src/comm.cpp:99)
  using 1 OpenMP thread(s) per MPI task
# LAMMPS script for running NVT simulation

units       metal                   # Energies in eV, distances in A
dimension   3
boundary    p p p
atom_style  full

bond_style   zero
angle_style  zero
pair_style   lj/cut/coul/long 9.0
kspace_style pppm 1.0e-5
read_data    ../equi_final.lammps-data
Reading data file ...
  orthogonal box = (0 0 0) to (154.008 148.19427 151.07317)
  10 by 8 by 8 MPI processor grid
  reading atoms ...
  14640 atoms
  reading velocities ...
  14640 velocities
  scanning bonds ...
  2 = max bonds/atom
  scanning angles ...
  1 = max angles/atom
  orthogonal box = (0 0 0) to (154.008 148.19427 151.07317)
  10 by 8 by 8 MPI processor grid
  reading bonds ...
  4000 bonds
  reading angles ...
  2000 angles
Finding 1-2 1-3 1-4 neighbors ...
  special bond factors lj:    0        0        0       
  special bond factors coul:  0        0        0       
     2 = max # of 1-2 neighbors
     1 = max # of 1-3 neighbors
     1 = max # of 1-4 neighbors
     2 = max # of special neighbors
  special bonds CPU = 6.106 seconds
  read_data CPU = 6.333 seconds

pair_coeff   1 1 0.0      1.0        # Ignore C-C
pair_coeff   1 2 0.0      1.0        # Ignore C-H
pair_coeff   1 3 0.004551 3.367      # LJ for C-O (0.4391 kJ/mol = 0.004551 eV)
pair_coeff   2 2 0.0      1.0        # SPC/E H-H
pair_coeff   2 3 0.0      1.0        # SPC/E H-O
pair_coeff   3 3 0.006735 3.166      # SPC/E O-O (0.1553 kcal/mol = 0.006735 eV)

set type 2 charge 0.4238            # SPC/E H
Setting atom values ...
  4000 settings made for charge
set type 3 charge -0.8476           # SPC/E O
Setting atom values ...
  2000 settings made for charge

variable t equal step

group graphene type 1
8640 atoms in group graphene
group H2O type 2 3
6000 atoms in group H2O

######### NVT production for 10 ns #############

thermo 10000
dump DUMP0 all atom 100 nvt_prod_0.lammpstrj
timestep 0.001
fix rigid_bonds H2O shake 0.0001 10 10000 b 1 a 1
Finding SHAKE clusters ...
       0 = # of size 2 clusters
       0 = # of size 3 clusters
       0 = # of size 4 clusters
    2000 = # of frozen angles
  find clusters CPU = 0.150 seconds
fix NVT1 H2O nvt temp 300 300 $(100.0*dt)
fix NVT1 H2O nvt temp 300 300 0.10000000000000000555
run 2000000
PPPM initialization ...
  using 12-bit tables for long-range coulomb (src/kspace.cpp:342)
  G vector (1/distance) = 0.28515695
  grid = 80 80 80
  stencil order = 5
  estimated absolute RMS force accuracy = 0.00017907316
  estimated relative force accuracy = 1.2435943e-05
  using double precision KISS FFT
  3d grid and FFT values/proc = 4335 960
Generated 0 of 3 mixed pair_coeff terms from geometric mixing rule
Neighbor list info ...
  update: every = 1 steps, delay = 0 steps, check = yes
  max neighbors/atom: 2000, page size: 100000
  master list distance cutoff = 11
  ghost atom cutoff = 11
  binsize = 5.5, bins = 29 27 28
  1 neighbor lists, perpetual/occasional/extra = 1 0 0
  (1) pair lj/cut/coul/long, perpetual
      attributes: half, newton on
      pair build: half/bin/newton
      stencil: half/bin/3d
      bin: standard
SHAKE stats (type/ave/delta/count) on step 0
Bond:   1   1         1.62119e-06     4000
Angle:  1   109.47    0.00012575      2000
Per MPI rank memory allocation (min/avg/max) = 7.995 | 8.052 | 8.802 Mbytes
   Step          Temp          E_pair         E_mol          TotEng         Press     
         0   95.731798     -930.66893      0             -774.27008     -3.7047122    
SHAKE stats (type/ave/delta/count) on step 10000
Bond:   1   1         1.15323e-06     4000
Angle:  1   109.47    9.08425e-05     2000
     10000   95.113319     -924.92657      0             -769.53813     -11.09663     
SHAKE stats (type/ave/delta/count) on step 20000
Bond:   1   1         1.4283e-06      4000
Angle:  1   109.47    0.000101741     2000
     20000   94.105545     -925.01249      0             -771.27048     -3.329249     
SHAKE stats (type/ave/delta/count) on step 30000
Bond:   1   1         1.43284e-06     4000
Angle:  1   109.47    0.000113544     2000
     30000   94.757747     -923.64759      0             -768.84006     -11.409688    
SHAKE stats (type/ave/delta/count) on step 40000
Bond:   1   1         1.11173e-06     4000
Angle:  1   109.47    9.45985e-05     2000
     40000   93.522004     -931.69654      0             -778.90786     -10.508644    
SHAKE stats (type/ave/delta/count) on step 50000
Bond:   1   1         1.29938e-06     4000
Angle:  1   109.47    9.22545e-05     2000
     50000   93.053762     -922.74216      0             -770.71846     -5.3758594    
SHAKE stats (type/ave/delta/count) on step 60000
Bond:   1   1         1.44282e-06     4000
Angle:  1   109.47    0.000125897     2000
     60000   94.857243     -920.98799      0             -766.01792      9.8351636    
SHAKE stats (type/ave/delta/count) on step 70000
Bond:   1   1         1.44552e-06     4000
Angle:  1   109.47    0.000115815     2000
     70000   94.419885     -925.19684      0             -770.94129     -10.055456    
SHAKE stats (type/ave/delta/count) on step 80000
Bond:   1   1         1.40787e-06     4000
Angle:  1   109.47    0.000104726     2000
     80000   93.958934     -926.33587      0             -772.83337     -9.2610813    
SHAKE stats (type/ave/delta/count) on step 90000
Bond:   1   1         1.31027e-06     4000
Angle:  1   109.47    0.000104036     2000
     90000   94.955778     -933.22266      0             -778.0916      -0.050484866  
SHAKE stats (type/ave/delta/count) on step 100000
Bond:   1   1         1.20756e-06     4000
Angle:  1   109.47    8.80414e-05     2000
    100000   95.53769      -926.01422      0             -769.93249     -10.14115     
SHAKE stats (type/ave/delta/count) on step 110000
Bond:   1   1         1.28846e-06     4000
Angle:  1   109.47    9.92449e-05     2000
    110000   92.94093      -924.49652      0             -772.65716     -9.4741824    
SHAKE stats (type/ave/delta/count) on step 120000
Bond:   1   1         1.47297e-06     4000
Angle:  1   109.47    0.000137916     2000
    120000   94.928753     -933.59728      0             -778.51037      1.296667     
SHAKE stats (type/ave/delta/count) on step 130000
Bond:   1   1         1.40038e-06     4000
Angle:  1   109.47    9.6889e-05      2000
    130000   95.681945     -927.50827      0             -771.19086     -3.2340716    
SHAKE stats (type/ave/delta/count) on step 140000
Bond:   1   1         9.94465e-07     4000
Angle:  1   109.47    9.1549e-05      2000
    140000   95.064201     -923.96627      0             -768.65808     -10.038529    
SHAKE stats (type/ave/delta/count) on step 150000
Bond:   1   1         1.6444e-06      4000
Angle:  1   109.47    0.000132753     2000
    150000   94.145795     -932.57219      0             -778.76442     -7.8371555    
SHAKE stats (type/ave/delta/count) on step 160000
Bond:   1   1         1.2312e-06      4000
Angle:  1   109.47    9.46275e-05     2000
    160000   93.199593     -924.98477      0             -772.72283     -10.982738    
SHAKE stats (type/ave/delta/count) on step 170000
Bond:   1   1         1.21269e-06     4000
Angle:  1   109.47    9.86794e-05     2000
    170000   96.895289     -925.817        0             -767.51733     -12.21211     
SHAKE stats (type/ave/delta/count) on step 180000
Bond:   1   1         1.34448e-06     4000
Angle:  1   109.47    9.50091e-05     2000
    180000   96.740437     -924.16401      0             -766.11732     -11.763363    
SHAKE stats (type/ave/delta/count) on step 190000
Bond:   1   1         1.29415e-06     4000
Angle:  1   109.47    0.000118289     2000
    190000   98.087902     -929.69082      0             -769.44276     -5.4678204    
SHAKE stats (type/ave/delta/count) on step 200000
Bond:   1   1         1.51057e-06     4000
Angle:  1   109.47    0.000146249     2000
    200000   96.51849      -927.471        0             -769.78691     -6.705501     
SHAKE stats (type/ave/delta/count) on step 210000
Bond:   1   1         1.25839e-06     4000
Angle:  1   109.47    9.97949e-05     2000
    210000   95.15172      -926.96729      0             -771.51612     -14.171263    
SHAKE stats (type/ave/delta/count) on step 220000
Bond:   1   1         1.25561e-06     4000
Angle:  1   109.47    0.00010334      2000
    220000   94.532766     -925.82607      0             -771.3861      -6.362012     
SHAKE stats (type/ave/delta/count) on step 230000
Bond:   1   1         1.15649e-06     4000
Angle:  1   109.47    9.04583e-05     2000
    230000   92.851008     -926.76137      0             -775.06892     -1.7305916    
SHAKE stats (type/ave/delta/count) on step 240000
Bond:   1   1         1.15205e-06     4000
Angle:  1   109.47    8.98502e-05     2000
    240000   94.363166     -927.1953       0             -773.0324      -11.635114    
SHAKE stats (type/ave/delta/count) on step 250000
Bond:   1   1         1.24054e-06     4000
Angle:  1   109.47    9.65487e-05     2000
    250000   94.960196     -929.54853      0             -774.41026     -8.6056764    
SHAKE stats (type/ave/delta/count) on step 260000
Bond:   1   1         1.35476e-06     4000
Angle:  1   109.47    9.73551e-05     2000
    260000   95.865191     -932.56327      0             -775.94649      2.4773681    
SHAKE stats (type/ave/delta/count) on step 270000
Bond:   1   1         1.08402e-06     4000
Angle:  1   109.47    8.77331e-05     2000
    270000   94.220714     -925.99044      0             -772.06027     -1.1424788    
SHAKE stats (type/ave/delta/count) on step 280000
Bond:   1   1         1.50694e-06     4000
Angle:  1   109.47    0.000129282     2000
    280000   93.13748      -928.42324      0             -776.26277     -4.4288581    
SHAKE stats (type/ave/delta/count) on step 290000
Bond:   1   1         1.85784e-06     4000
Angle:  1   109.47    0.000153194     2000
    290000   95.397163     -926.46665      0             -770.6145      -12.746307    
SHAKE stats (type/ave/delta/count) on step 300000
Bond:   1   1         1.20481e-06     4000
Angle:  1   109.47    9.29932e-05     2000
    300000   93.884098     -929.83199      0             -776.45176     -16.325519    
SHAKE stats (type/ave/delta/count) on step 310000
Bond:   1   1         1.38741e-06     4000
Angle:  1   109.47    0.000103195     2000
    310000   95.723391     -926.16261      0             -769.77749     -13.956634    
SHAKE stats (type/ave/delta/count) on step 320000
Bond:   1   1         1.38035e-06     4000
Angle:  1   109.47    0.000106066     2000
    320000   96.197282     -925.08032      0             -767.92099     -5.4947374    
SHAKE stats (type/ave/delta/count) on step 330000
Bond:   1   1         1.55709e-06     4000
Angle:  1   109.47    0.000111633     2000
    330000   94.424559     -928.21011      0             -773.94692     -0.89362076   
SHAKE stats (type/ave/delta/count) on step 340000
Bond:   1   1         9.89088e-07     4000
Angle:  1   109.47    9.35975e-05     2000
    340000   94.622253     -928.11017      0             -773.524       -17.00689     
SHAKE stats (type/ave/delta/count) on step 350000
Bond:   1   1         1.1871e-06      4000
Angle:  1   109.47    0.00010439      2000
    350000   94.395337     -927.01503      0             -772.79957     -1.9919391    
SHAKE stats (type/ave/delta/count) on step 360000
Bond:   1   1         1.15284e-06     4000
Angle:  1   109.47    9.45735e-05     2000
    360000   95.279308     -923.71139      0             -768.05177     -4.649201     
SHAKE stats (type/ave/delta/count) on step 370000
Bond:   1   1         1.12169e-06     4000
Angle:  1   109.47    0.000100616     2000
    370000   96.527953     -927.4027       0             -769.70316      1.1034408    
SHAKE stats (type/ave/delta/count) on step 380000
Bond:   1   1         1.30621e-06     4000
Angle:  1   109.47    9.97685e-05     2000
    380000   93.327524     -924.14052      0             -771.66957     -1.0430161    
SHAKE stats (type/ave/delta/count) on step 390000
Bond:   1   1         1.22537e-06     4000
Angle:  1   109.47    9.50344e-05     2000
    390000   95.891108     -925.48465      0             -768.82553     -2.5382315    
SHAKE stats (type/ave/delta/count) on step 400000
Bond:   1   1         1.19526e-06     4000
Angle:  1   109.47    0.0001209       2000
    400000   95.078807     -923.0098       0             -767.67774     -5.9650084    
SHAKE stats (type/ave/delta/count) on step 410000
Bond:   1   1         1.50099e-06     4000
Angle:  1   109.47    0.000101109     2000
    410000   94.952585     -930.80541      0             -775.67957     -4.1421649    
SHAKE stats (type/ave/delta/count) on step 420000
Bond:   1   1         1.22672e-06     4000
Angle:  1   109.47    9.19746e-05     2000
    420000   95.24215      -921.49336      0             -765.89445     -8.6715015    
SHAKE stats (type/ave/delta/count) on step 430000
Bond:   1   1         1.17476e-06     4000
Angle:  1   109.47    0.000105345     2000
    430000   94.69415      -931.13084      0             -776.42721     -3.0309231    
SHAKE stats (type/ave/delta/count) on step 440000
Bond:   1   1         1.49513e-06     4000
Angle:  1   109.47    9.93255e-05     2000
    440000   94.794679     -929.96006      0             -775.09219     -12.674178    
SHAKE stats (type/ave/delta/count) on step 450000
Bond:   1   1         1.08559e-06     4000
Angle:  1   109.47    9.72917e-05     2000
    450000   93.608068     -923.825        0             -770.89572     -13.820916    
SHAKE stats (type/ave/delta/count) on step 460000
Bond:   1   1         1.23528e-06     4000
Angle:  1   109.47    0.000101364     2000
    460000   95.469853     -928.16568      0             -772.19477     -11.389972    
SHAKE stats (type/ave/delta/count) on step 470000
Bond:   1   1         1.21357e-06     4000
Angle:  1   109.47    9.24429e-05     2000
    470000   94.533683     -927.5618       0             -773.12033      1.8840546    
SHAKE stats (type/ave/delta/count) on step 480000
Bond:   1   1         1.06632e-06     4000
Angle:  1   109.47    0.000105568     2000
    480000   95.109807     -930.23385      0             -774.85116     -10.433736    
SHAKE stats (type/ave/delta/count) on step 490000
Bond:   1   1         1.24443e-06     4000
Angle:  1   109.47    9.40575e-05     2000
    490000   94.59684      -926.24269      0             -771.69804     -16.799732    
SHAKE stats (type/ave/delta/count) on step 500000
Bond:   1   1         1.52871e-06     4000
Angle:  1   109.47    0.000100506     2000
    500000   95.083236     -922.22028      0             -766.881       -8.4499079    
SHAKE stats (type/ave/delta/count) on step 510000
Bond:   1   1         1.37943e-06     4000
Angle:  1   109.47    0.00011893      2000
    510000   96.15217      -925.16179      0             -768.07616     -10.250951    
SHAKE stats (type/ave/delta/count) on step 520000
Bond:   1   1         1.326e-06       4000
Angle:  1   109.47    9.72193e-05     2000
    520000   94.813347     -930.0322       0             -775.13384     -7.5319086    
SHAKE stats (type/ave/delta/count) on step 530000
Bond:   1   1         1.50238e-06     4000
Angle:  1   109.47    0.000105271     2000
    530000   93.982977     -927.62783      0             -774.08605     -0.42695003   
SHAKE stats (type/ave/delta/count) on step 540000
Bond:   1   1         1.5094e-06      4000
Angle:  1   109.47    0.000106738     2000
    540000   93.205015     -926.09103      0             -773.82022     -3.6859142    
SHAKE stats (type/ave/delta/count) on step 550000
Bond:   1   1         1.44679e-06     4000
Angle:  1   109.47    9.1659e-05      2000
    550000   95.509843     -923.21052      0             -767.17428     -8.1492321    
SHAKE stats (type/ave/delta/count) on step 560000
Bond:   1   1         1.13244e-06     4000
Angle:  1   109.47    0.000102228     2000
    560000   94.009902     -923.36424      0             -769.77848      1.4436624    
SHAKE stats (type/ave/delta/count) on step 570000
Bond:   1   1         1.30613e-06     4000
Angle:  1   109.47    9.87912e-05     2000
    570000   96.076145     -927.20384      0             -770.24242     -1.3355124    
SHAKE stats (type/ave/delta/count) on step 580000
Bond:   1   1         1.30154e-06     4000
Angle:  1   109.47    9.72031e-05     2000
    580000   94.520888     -925.17864      0             -770.75808     -4.4009158    
SHAKE stats (type/ave/delta/count) on step 590000
Bond:   1   1         1.19131e-06     4000
Angle:  1   109.47    9.14642e-05     2000
    590000   94.148782     -927.7841       0             -773.97145     -11.41496     
SHAKE stats (type/ave/delta/count) on step 600000
Bond:   1   1         1.10484e-06     4000
Angle:  1   109.47    0.000104382     2000
    600000   95.048636     -931.12447      0             -775.84171     -3.1039045    
SHAKE stats (type/ave/delta/count) on step 610000
Bond:   1   1         1.31534e-06     4000
Angle:  1   109.47    0.000110588     2000
    610000   95.495012     -931.86645      0             -775.85443     -9.2447957    
SHAKE stats (type/ave/delta/count) on step 620000
Bond:   1   1         1.49147e-06     4000
Angle:  1   109.47    9.40174e-05     2000
    620000   93.428236     -927.74455      0             -775.10907     -14.509275    
SHAKE stats (type/ave/delta/count) on step 630000
Bond:   1   1         1.31909e-06     4000
Angle:  1   109.47    9.40129e-05     2000
    630000   94.614265     -924.58844      0             -770.01532     -6.2044945    
SHAKE stats (type/ave/delta/count) on step 640000
Bond:   1   1         1.10818e-06     4000
Angle:  1   109.47    9.06582e-05     2000
    640000   94.438263     -928.45424      0             -774.16866     -3.5084677    
SHAKE stats (type/ave/delta/count) on step 650000
Bond:   1   1         1.19818e-06     4000
Angle:  1   109.47    9.9441e-05      2000
    650000   94.228334     -925.73731      0             -771.7947      -4.5794821    
SHAKE stats (type/ave/delta/count) on step 660000
Bond:   1   1         1.25882e-06     4000
Angle:  1   109.47    9.61715e-05     2000
    660000   94.920672     -927.93207      0             -772.85836      2.344496     
SHAKE stats (type/ave/delta/count) on step 670000
Bond:   1   1         1.08978e-06     4000
Angle:  1   109.47    8.97449e-05     2000
    670000   93.670485     -924.88241      0             -771.85116      6.3975931    
SHAKE stats (type/ave/delta/count) on step 680000
Bond:   1   1         1.37247e-06     4000
Angle:  1   109.47    9.34218e-05     2000
    680000   94.91477      -927.62864      0             -772.56458     -3.8189603    
SHAKE stats (type/ave/delta/count) on step 690000
Bond:   1   1         1.17436e-06     4000
Angle:  1   109.47    9.08177e-05     2000
    690000   93.490057     -923.81469      0             -771.07821      1.5206086    
SHAKE stats (type/ave/delta/count) on step 700000
Bond:   1   1         1.26303e-06     4000
Angle:  1   109.47    0.000105011     2000
    700000   96.072399     -929.19852      0             -772.24322     -7.8326837    
SHAKE stats (type/ave/delta/count) on step 710000
Bond:   1   1         1.19358e-06     4000
Angle:  1   109.47    9.8886e-05      2000
    710000   93.90817      -921.97282      0             -768.55326     -11.755366    
SHAKE stats (type/ave/delta/count) on step 720000
Bond:   1   1         1.16486e-06     4000
Angle:  1   109.47    9.31794e-05     2000
    720000   94.909049     -929.81549      0             -774.76078     -4.754523     
SHAKE stats (type/ave/delta/count) on step 730000
Bond:   1   1         1.66411e-06     4000
Angle:  1   109.47    0.000123276     2000
    730000   97.927782     -921.80272      0             -761.81625     -13.073244    
SHAKE stats (type/ave/delta/count) on step 740000
Bond:   1   1         1.34028e-06     4000
Angle:  1   109.47    0.000108338     2000
    740000   94.568812     -929.10871      0             -774.60985     -9.2502517    
SHAKE stats (type/ave/delta/count) on step 750000
Bond:   1   1         1.07532e-06     4000
Angle:  1   109.47    9.15988e-05     2000
    750000   93.94566      -931.15902      0             -777.67821     -4.5392314    
SHAKE stats (type/ave/delta/count) on step 760000
Bond:   1   1         1.67898e-06     4000
Angle:  1   109.47    0.000127318     2000
    760000   95.902225     -926.38921      0             -769.71193     -11.050741    
SHAKE stats (type/ave/delta/count) on step 770000
Bond:   1   1         1.29219e-06     4000
Angle:  1   109.47    0.000110087     2000
    770000   92.302207     -925.96423      0             -775.16837      5.8363602    
SHAKE stats (type/ave/delta/count) on step 780000
Bond:   1   1         1.15065e-06     4000
Angle:  1   109.47    9.22722e-05     2000
    780000   97.429205     -928.51647      0             -769.34453     -10.969707    
SHAKE stats (type/ave/delta/count) on step 790000
Bond:   1   1         1.26398e-06     4000
Angle:  1   109.47    9.32469e-05     2000
    790000   95.724374     -923.18974      0             -766.80301     -3.8039211    
SHAKE stats (type/ave/delta/count) on step 800000
Bond:   1   1         1.24501e-06     4000
Angle:  1   109.47    9.31349e-05     2000
    800000   93.709116     -930.63882      0             -777.54446     -12.929792    
SHAKE stats (type/ave/delta/count) on step 810000
Bond:   1   1         1.16293e-06     4000
Angle:  1   109.47    9.37569e-05     2000
    810000   97.386629     -932.46542      0             -773.36303      2.8848191    
SHAKE stats (type/ave/delta/count) on step 820000
Bond:   1   1         1.2884e-06      4000
Angle:  1   109.47    0.00010587      2000
    820000   94.345954     -933.01968      0             -778.8849      -1.029897     
SHAKE stats (type/ave/delta/count) on step 830000
Bond:   1   1         1.27737e-06     4000
Angle:  1   109.47    0.000102512     2000
    830000   93.671242     -930.31645      0             -777.28397     -3.4587955    
SHAKE stats (type/ave/delta/count) on step 840000
Bond:   1   1         1.39457e-06     4000
Angle:  1   109.47    0.000108151     2000
    840000   94.448274     -924.25283      0             -769.9509      -7.790984     
SHAKE stats (type/ave/delta/count) on step 850000
Bond:   1   1         1.4051e-06      4000
Angle:  1   109.47    0.000104419     2000
    850000   94.826635     -928.57439      0             -773.65432      1.3574181    
SHAKE stats (type/ave/delta/count) on step 860000
Bond:   1   1         1.15479e-06     4000
Angle:  1   109.47    8.62258e-05     2000
    860000   96.460283     -928.37124      0             -770.78225     -3.6052593    
SHAKE stats (type/ave/delta/count) on step 870000
Bond:   1   1         1.27487e-06     4000
Angle:  1   109.47    8.79203e-05     2000
    870000   95.316132     -926.19164      0             -770.47187     -9.3607144    
SHAKE stats (type/ave/delta/count) on step 880000
Bond:   1   1         1.32023e-06     4000
Angle:  1   109.47    9.97137e-05     2000
    880000   95.531529     -926.29304      0             -770.22137     -12.558817    
SHAKE stats (type/ave/delta/count) on step 890000
Bond:   1   1         1.49146e-06     4000
Angle:  1   109.47    0.000114681     2000
    890000   96.322144     -930.03597      0             -772.67265     -2.7985367    
SHAKE stats (type/ave/delta/count) on step 900000
Bond:   1   1         1.44999e-06     4000
Angle:  1   109.47    9.66716e-05     2000
    900000   93.970569     -930.05454      0             -776.53303     -9.0224738    
SHAKE stats (type/ave/delta/count) on step 910000
Bond:   1   1         1.41851e-06     4000
Angle:  1   109.47    0.000116317     2000
    910000   95.172718     -925.87511      0             -770.38963     -10.467426    
SHAKE stats (type/ave/delta/count) on step 920000
Bond:   1   1         1.15961e-06     4000
Angle:  1   109.47    9.48846e-05     2000
    920000   94.583824     -924.24235      0             -769.71896     -7.6899392    
SHAKE stats (type/ave/delta/count) on step 930000
Bond:   1   1         1.34067e-06     4000
Angle:  1   109.47    0.000101674     2000
    930000   94.762104     -932.56842      0             -777.75378     -14.06109     
SHAKE stats (type/ave/delta/count) on step 940000
Bond:   1   1         1.15231e-06     4000
Angle:  1   109.47    0.000114492     2000
    940000   94.569917     -928.3122       0             -773.81153     -12.592484    
SHAKE stats (type/ave/delta/count) on step 950000
Bond:   1   1         1.23646e-06     4000
Angle:  1   109.47    0.000105775     2000
    950000   93.301925     -926.01484      0             -773.58571     -2.3951965    
SHAKE stats (type/ave/delta/count) on step 960000
Bond:   1   1         1.29202e-06     4000
Angle:  1   109.47    0.000101424     2000
    960000   96.440222     -926.07479      0             -768.51857     -11.737939    
SHAKE stats (type/ave/delta/count) on step 970000
Bond:   1   1         1.33092e-06     4000
Angle:  1   109.47    9.99805e-05     2000
    970000   93.717375     -928.34912      0             -775.24126     -12.086135    
SHAKE stats (type/ave/delta/count) on step 980000
Bond:   1   1         1.31214e-06     4000
Angle:  1   109.47    0.000101298     2000
    980000   92.930367     -919.8079       0             -767.9858      -9.2939207    
SHAKE stats (type/ave/delta/count) on step 990000
Bond:   1   1         1.298e-06       4000
Angle:  1   109.47    9.2428e-05      2000
    990000   96.177367     -925.84241      0             -768.71562     -2.1715959    
SHAKE stats (type/ave/delta/count) on step 1000000
Bond:   1   1         1.299e-06       4000
Angle:  1   109.47    9.7293e-05      2000
   1000000   93.482848     -925.57431      0             -772.84961     -3.7216547    
SHAKE stats (type/ave/delta/count) on step 1010000
Bond:   1   1         1.31402e-06     4000
Angle:  1   109.47    0.000112061     2000
   1010000   95.842218     -928.0946       0             -771.51535     -0.6180401    
SHAKE stats (type/ave/delta/count) on step 1020000
Bond:   1   1         1.16897e-06     4000
Angle:  1   109.47    9.33068e-05     2000
   1020000   94.814112     -932.18117      0             -777.28156     -1.4213279    
SHAKE stats (type/ave/delta/count) on step 1030000
Bond:   1   1         1.21033e-06     4000
Angle:  1   109.47    0.000116979     2000
   1030000   95.344403     -927.97934      0             -772.21338     -0.19932022   
SHAKE stats (type/ave/delta/count) on step 1040000
Bond:   1   1         1.21717e-06     4000
Angle:  1   109.47    9.21747e-05     2000
   1040000   95.469935     -924.69613      0             -768.72509     -5.6736047    
SHAKE stats (type/ave/delta/count) on step 1050000
Bond:   1   1         1.67971e-06     4000
Angle:  1   109.47    0.000111529     2000
   1050000   92.70009      -928.65179      0             -777.2059      -8.2563716    
SHAKE stats (type/ave/delta/count) on step 1060000
Bond:   1   1         1.15986e-06     4000
Angle:  1   109.47    9.04658e-05     2000
   1060000   94.215176     -928.92895      0             -775.00783     -3.4290748    
SHAKE stats (type/ave/delta/count) on step 1070000
Bond:   1   1         1.19922e-06     4000
Angle:  1   109.47    0.000105194     2000
   1070000   96.077691     -924.46533      0             -767.50139     -13.828262    
SHAKE stats (type/ave/delta/count) on step 1080000
Bond:   1   1         1.17609e-06     4000
Angle:  1   109.47    0.000107298     2000
   1080000   96.796735     -922.20637      0             -764.06771      3.5200589    
SHAKE stats (type/ave/delta/count) on step 1090000
Bond:   1   1         1.43825e-06     4000
Angle:  1   109.47    8.91823e-05     2000
   1090000   95.276476     -925.25697      0             -769.60199      1.7619542    
SHAKE stats (type/ave/delta/count) on step 1100000
Bond:   1   1         1.60012e-06     4000
Angle:  1   109.47    0.000128581     2000
   1100000   96.557184     -927.42976      0             -769.68246     -19.181173    
SHAKE stats (type/ave/delta/count) on step 1110000
Bond:   1   1         1.49167e-06     4000
Angle:  1   109.47    0.00010551      2000
   1110000   93.516316     -927.40183      0             -774.62245     -6.5163283    
SHAKE stats (type/ave/delta/count) on step 1120000
Bond:   1   1         2.14493e-06     4000
Angle:  1   109.47    0.000139475     2000
   1120000   93.500043     -925.67193      0             -772.91914     -6.7753443    
SHAKE stats (type/ave/delta/count) on step 1130000
Bond:   1   1         1.28931e-06     4000
Angle:  1   109.47    9.45124e-05     2000
   1130000   95.749087     -927.79561      0             -771.36851     -5.5124837    
SHAKE stats (type/ave/delta/count) on step 1140000
Bond:   1   1         1.08403e-06     4000
Angle:  1   109.47    0.000100416     2000
   1140000   95.167223     -924.99484      0             -769.51834     -4.121527     
SHAKE stats (type/ave/delta/count) on step 1150000
Bond:   1   1         1.18456e-06     4000
Angle:  1   109.47    9.15618e-05     2000
   1150000   96.144059     -931.37026      0             -774.29789     -7.2311935    
SHAKE stats (type/ave/delta/count) on step 1160000
Bond:   1   1         1.58597e-06     4000
Angle:  1   109.47    0.000129267     2000
   1160000   94.581854     -924.4241       0             -769.90393     -9.0086899    
SHAKE stats (type/ave/delta/count) on step 1170000
Bond:   1   1         1.56782e-06     4000
Angle:  1   109.47    0.000120513     2000
   1170000   94.556076     -927.53333      0             -773.05528     -3.681299     
SHAKE stats (type/ave/delta/count) on step 1180000
Bond:   1   1         1.19989e-06     4000
Angle:  1   109.47    9.84882e-05     2000
   1180000   94.609669     -924.9198       0             -770.35419     -8.755529     
SHAKE stats (type/ave/delta/count) on step 1190000
Bond:   1   1         1.50601e-06     4000
Angle:  1   109.47    0.000101992     2000
   1190000   94.918156     -929.78178      0             -774.71219      1.9435649    
SHAKE stats (type/ave/delta/count) on step 1200000
Bond:   1   1         1.45993e-06     4000
Angle:  1   109.47    0.00012654      2000
   1200000   97.29647      -918.60073      0             -759.64564     -4.2590582    
SHAKE stats (type/ave/delta/count) on step 1210000
Bond:   1   1         1.14621e-06     4000
Angle:  1   109.47    9.2292e-05      2000
   1210000   96.861094     -927.66019      0             -769.41639     -6.5335421    
SHAKE stats (type/ave/delta/count) on step 1220000
Bond:   1   1         1.19136e-06     4000
Angle:  1   109.47    9.32665e-05     2000
   1220000   95.023434     -928.8253       0             -773.58371     -5.1741762    
SHAKE stats (type/ave/delta/count) on step 1230000
Bond:   1   1         1.31732e-06     4000
Angle:  1   109.47    9.95614e-05     2000
   1230000   96.346329     -931.07524      0             -773.67242      1.4397184    
SHAKE stats (type/ave/delta/count) on step 1240000
Bond:   1   1         1.11599e-06     4000
Angle:  1   109.47    0.000100686     2000
   1240000   95.037568     -926.89865      0             -771.63397     -3.4874968    
SHAKE stats (type/ave/delta/count) on step 1250000
Bond:   1   1         1.2196e-06      4000
Angle:  1   109.47    9.39216e-05     2000
   1250000   95.608849     -929.00139      0             -772.8034      -9.5970379    
SHAKE stats (type/ave/delta/count) on step 1260000
Bond:   1   1         1.28854e-06     4000
Angle:  1   109.47    0.000129455     2000
   1260000   95.757894     -926.6804       0             -770.23891     -9.6009213    
SHAKE stats (type/ave/delta/count) on step 1270000
Bond:   1   1         1.87456e-06     4000
Angle:  1   109.47    0.000106171     2000
   1270000   95.480881     -921.57975      0             -765.59082     -0.2467627    
SHAKE stats (type/ave/delta/count) on step 1280000
Bond:   1   1         1.17539e-06     4000
Angle:  1   109.47    0.000127303     2000
   1280000   95.714089     -922.96018      0             -766.59026     -10.927144    
SHAKE stats (type/ave/delta/count) on step 1290000
Bond:   1   1         1.28552e-06     4000
Angle:  1   109.47    0.000105227     2000
   1290000   94.058801     -923.13758      0             -769.47193     -7.9309095    
SHAKE stats (type/ave/delta/count) on step 1300000
Bond:   1   1         1.11855e-06     4000
Angle:  1   109.47    9.95787e-05     2000
   1300000   95.56665      -923.33644      0             -767.2074      -5.9451748    
SHAKE stats (type/ave/delta/count) on step 1310000
Bond:   1   1         1.18881e-06     4000
Angle:  1   109.47    0.000102663     2000
   1310000   95.915907     -928.61552      0             -771.91588     -4.1659064    
SHAKE stats (type/ave/delta/count) on step 1320000
Bond:   1   1         1.21174e-06     4000
Angle:  1   109.47    8.75615e-05     2000
   1320000   96.385374     -925.81726      0             -768.35065     -3.2971881    
SHAKE stats (type/ave/delta/count) on step 1330000
Bond:   1   1         1.37773e-06     4000
Angle:  1   109.47    9.48001e-05     2000
   1330000   94.50873      -926.18603      0             -771.78532     -8.7426017    
SHAKE stats (type/ave/delta/count) on step 1340000
Bond:   1   1         1.41983e-06     4000
Angle:  1   109.47    9.31314e-05     2000
   1340000   96.351958     -930.12427      0             -772.71224     -4.306095     
SHAKE stats (type/ave/delta/count) on step 1350000
Bond:   1   1         1.38038e-06     4000
Angle:  1   109.47    9.99152e-05     2000
   1350000   93.334836     -924.40208      0             -771.91919     -7.7478241    
SHAKE stats (type/ave/delta/count) on step 1360000
Bond:   1   1         1.21247e-06     4000
Angle:  1   109.47    9.95675e-05     2000
   1360000   93.289347     -924.51325      0             -772.10467     -5.66882      
SHAKE stats (type/ave/delta/count) on step 1370000
Bond:   1   1         1.35082e-06     4000
Angle:  1   109.47    9.29699e-05     2000
   1370000   93.827809     -926.73745      0             -773.44917     -3.5457924    
SHAKE stats (type/ave/delta/count) on step 1380000
Bond:   1   1         1.27313e-06     4000
Angle:  1   109.47    8.8972e-05      2000
   1380000   98.181423     -928.37886      0             -767.97801      1.3389091    
SHAKE stats (type/ave/delta/count) on step 1390000
Bond:   1   1         1.3033e-06      4000
Angle:  1   109.47    0.000104005     2000
   1390000   95.911285     -930.20014      0             -773.50805     -8.0840478    
SHAKE stats (type/ave/delta/count) on step 1400000
Bond:   1   1         1.34135e-06     4000
Angle:  1   109.47    9.5642e-05      2000
   1400000   95.13459      -936.53732      0             -781.11413      1.2055778    
SHAKE stats (type/ave/delta/count) on step 1410000
Bond:   1   1         1.14715e-06     4000
Angle:  1   109.47    9.02131e-05     2000
   1410000   95.727112     -931.94127      0             -775.55007      1.9679008    
SHAKE stats (type/ave/delta/count) on step 1420000
Bond:   1   1         1.19472e-06     4000
Angle:  1   109.47    0.000100546     2000
   1420000   94.400488     -921.78425      0             -767.56038     -4.2570607    
SHAKE stats (type/ave/delta/count) on step 1430000
Bond:   1   1         1.18748e-06     4000
Angle:  1   109.47    9.52988e-05     2000
   1430000   95.191785     -926.78652      0             -771.2699      -12.217718    
SHAKE stats (type/ave/delta/count) on step 1440000
Bond:   1   1         1.14619e-06     4000
Angle:  1   109.47    9.67412e-05     2000
   1440000   95.923029     -925.61476      0             -768.90348     -2.0670682    
SHAKE stats (type/ave/delta/count) on step 1450000
Bond:   1   1         1.26355e-06     4000
Angle:  1   109.47    0.000113409     2000
   1450000   95.646401     -928.68842      0             -772.42908     -12.158887    
SHAKE stats (type/ave/delta/count) on step 1460000
Bond:   1   1         1.451e-06       4000
Angle:  1   109.47    0.000120686     2000
   1460000   94.065644     -925.53039      0             -771.85356     -9.1892704    
SHAKE stats (type/ave/delta/count) on step 1470000
Bond:   1   1         1.23906e-06     4000
Angle:  1   109.47    0.000100875     2000
   1470000   97.254898     -922.56214      0             -763.67496     -9.6429922    
SHAKE stats (type/ave/delta/count) on step 1480000
Bond:   1   1         1.36529e-06     4000
Angle:  1   109.47    0.000116664     2000
   1480000   94.159481     -928.31069      0             -774.48056     -10.20171     
SHAKE stats (type/ave/delta/count) on step 1490000
Bond:   1   1         1.9362e-06      4000
Angle:  1   109.47    0.000135938     2000
   1490000   93.383021     -923.76621      0             -771.20459     -12.882123    
SHAKE stats (type/ave/delta/count) on step 1500000
Bond:   1   1         1.12911e-06     4000
Angle:  1   109.47    9.23123e-05     2000
   1500000   92.862657     -931.49198      0             -779.7805      -15.700447    
SHAKE stats (type/ave/delta/count) on step 1510000
Bond:   1   1         1.44954e-06     4000
Angle:  1   109.47    0.000122529     2000
   1510000   95.802259     -926.06184      0             -769.54787     -18.943449    
SHAKE stats (type/ave/delta/count) on step 1520000
Bond:   1   1         1.34669e-06     4000
Angle:  1   109.47    9.70746e-05     2000
   1520000   94.587633     -929.48479      0             -774.95517     -13.440981    
SHAKE stats (type/ave/delta/count) on step 1530000
Bond:   1   1         1.22538e-06     4000
Angle:  1   109.47    9.37762e-05     2000
   1530000   94.218794     -930.58164      0             -776.65461     -13.642489    
SHAKE stats (type/ave/delta/count) on step 1540000
Bond:   1   1         1.33347e-06     4000
Angle:  1   109.47    0.000100575     2000
   1540000   96.143472     -924.44919      0             -767.37777     -0.39104773   
SHAKE stats (type/ave/delta/count) on step 1550000
Bond:   1   1         1.37738e-06     4000
Angle:  1   109.47    0.000105451     2000
   1550000   96.0077       -925.12113      0             -768.27153     -6.460409     
SHAKE stats (type/ave/delta/count) on step 1560000
Bond:   1   1         1.21879e-06     4000
Angle:  1   109.47    9.42045e-05     2000
   1560000   94.440498     -929.66889      0             -775.37966     -3.7985133    
SHAKE stats (type/ave/delta/count) on step 1570000
Bond:   1   1         1.37592e-06     4000
Angle:  1   109.47    0.000107568     2000
   1570000   93.841133     -924.18552      0             -770.87548     -4.2781775    
SHAKE stats (type/ave/delta/count) on step 1580000
Bond:   1   1         1.07038e-06     4000
Angle:  1   109.47    8.61824e-05     2000
   1580000   95.583843     -927.82506      0             -771.66793     -7.4657449    
SHAKE stats (type/ave/delta/count) on step 1590000
Bond:   1   1         1.17611e-06     4000
Angle:  1   109.47    8.8774e-05      2000
   1590000   96.497757     -926.38156      0             -768.73134     -3.9221628    
SHAKE stats (type/ave/delta/count) on step 1600000
Bond:   1   1         1.42851e-06     4000
Angle:  1   109.47    0.000100543     2000
   1600000   95.261943     -925.45915      0             -769.8279      -6.3464613    
SHAKE stats (type/ave/delta/count) on step 1610000
Bond:   1   1         1.24021e-06     4000
Angle:  1   109.47    9.58295e-05     2000
   1610000   95.314233     -922.50935      0             -766.79268     -6.6256849    
SHAKE stats (type/ave/delta/count) on step 1620000
Bond:   1   1         1.36591e-06     4000
Angle:  1   109.47    0.000103175     2000
   1620000   95.90894      -932.56968      0             -775.88143     -6.9549786    
SHAKE stats (type/ave/delta/count) on step 1630000
Bond:   1   1         1.9113e-06      4000
Angle:  1   109.47    0.000133883     2000
   1630000   96.238795     -926.85705      0             -769.6299      -3.9500808    
SHAKE stats (type/ave/delta/count) on step 1640000
Bond:   1   1         1.28084e-06     4000
Angle:  1   109.47    9.08661e-05     2000
   1640000   95.567412     -928.50295      0             -772.37266      3.1861314    
SHAKE stats (type/ave/delta/count) on step 1650000
Bond:   1   1         1.05634e-06     4000
Angle:  1   109.47    8.74244e-05     2000
   1650000   95.740747     -925.58921      0             -769.17574     -9.3784188    
SHAKE stats (type/ave/delta/count) on step 1660000
Bond:   1   1         1.15182e-06     4000
Angle:  1   109.47    0.000111546     2000
   1660000   94.600205     -926.94263      0             -772.39248     -9.8959475    
SHAKE stats (type/ave/delta/count) on step 1670000
Bond:   1   1         1.90845e-06     4000
Angle:  1   109.47    0.000151174     2000
   1670000   96.908737     -931.5037       0             -773.18206     -3.5109874    
SHAKE stats (type/ave/delta/count) on step 1680000
Bond:   1   1         1.56713e-06     4000
Angle:  1   109.47    0.000121698     2000
   1680000   94.885031     -922.80372      0             -767.78824     -9.5452083    
SHAKE stats (type/ave/delta/count) on step 1690000
Bond:   1   1         1.15132e-06     4000
Angle:  1   109.47    9.17234e-05     2000
   1690000   94.313988     -922.06168      0             -767.97912     -18.836682    
SHAKE stats (type/ave/delta/count) on step 1700000
Bond:   1   1         1.24945e-06     4000
Angle:  1   109.47    9.40269e-05     2000
   1700000   96.222677     -923.94291      0             -766.7421      -0.2432321    
SHAKE stats (type/ave/delta/count) on step 1710000
Bond:   1   1         1.52269e-06     4000
Angle:  1   109.47    0.000105735     2000
   1710000   95.283706     -926.55076      0             -770.88396     -3.1272244    
SHAKE stats (type/ave/delta/count) on step 1720000
Bond:   1   1         1.1992e-06      4000
Angle:  1   109.47    9.58617e-05     2000
   1720000   95.246999     -921.79051      0             -766.18368     -13.98583     
SHAKE stats (type/ave/delta/count) on step 1730000
Bond:   1   1         1.26523e-06     4000
Angle:  1   109.47    0.000106479     2000
   1730000   96.111137     -927.38091      0             -770.36232      2.4082205    
SHAKE stats (type/ave/delta/count) on step 1740000
Bond:   1   1         1.20845e-06     4000
Angle:  1   109.47    0.000107373     2000
   1740000   92.845604     -929.53334      0             -777.84971      0.064811441  
SHAKE stats (type/ave/delta/count) on step 1750000
Bond:   1   1         1.59726e-06     4000
Angle:  1   109.47    0.000131008     2000
   1750000   94.216404     -922.36171      0             -768.43858     -6.8568469    
SHAKE stats (type/ave/delta/count) on step 1760000
Bond:   1   1         1.26026e-06     4000
Angle:  1   109.47    9.23067e-05     2000
   1760000   95.721946     -927.77996      0             -771.3972      -6.6884218    
SHAKE stats (type/ave/delta/count) on step 1770000
Bond:   1   1         1.2957e-06      4000
Angle:  1   109.47    9.92357e-05     2000
   1770000   96.073183     -934.64993      0             -777.69334     -2.7233988    
SHAKE stats (type/ave/delta/count) on step 1780000
Bond:   1   1         1.21837e-06     4000
Angle:  1   109.47    0.00010583      2000
   1780000   96.004695     -928.17764      0             -771.33294     -5.3883438    
SHAKE stats (type/ave/delta/count) on step 1790000
Bond:   1   1         1.2386e-06      4000
Angle:  1   109.47    9.49606e-05     2000
   1790000   97.240594     -923.8416       0             -764.97779     -10.81385     
SHAKE stats (type/ave/delta/count) on step 1800000
Bond:   1   1         1.72663e-06     4000
Angle:  1   109.47    0.000123518     2000
   1800000   96.286258     -929.54675      0             -772.24206     -7.3907076    
SHAKE stats (type/ave/delta/count) on step 1810000
Bond:   1   1         1.21266e-06     4000
Angle:  1   109.47    8.87208e-05     2000
   1810000   95.862946     -928.91912      0             -772.30601     -9.710198     
SHAKE stats (type/ave/delta/count) on step 1820000
Bond:   1   1         1.12597e-06     4000
Angle:  1   109.47    8.80173e-05     2000
   1820000   94.455373     -922.60549      0             -768.29195     -13.831427    
SHAKE stats (type/ave/delta/count) on step 1830000
Bond:   1   1         1.36548e-06     4000
Angle:  1   109.47    0.000100087     2000
   1830000   94.507944     -924.12189      0             -769.72247     -7.0558271    
SHAKE stats (type/ave/delta/count) on step 1840000
Bond:   1   1         1.33932e-06     4000
Angle:  1   109.47    0.000111278     2000
   1840000   95.21375      -933.10507      0             -777.55256     -2.7462784    
SHAKE stats (type/ave/delta/count) on step 1850000
Bond:   1   1         1.20265e-06     4000
Angle:  1   109.47    0.000112785     2000
   1850000   95.207287     -930.14765      0             -774.6057      -8.216817     
SHAKE stats (type/ave/delta/count) on step 1860000
Bond:   1   1         1.09486e-06     4000
Angle:  1   109.47    9.59964e-05     2000
   1860000   97.670896     -927.69777      0             -768.13098     -1.7048368    
SHAKE stats (type/ave/delta/count) on step 1870000
Bond:   1   1         1.32396e-06     4000
Angle:  1   109.47    9.88932e-05     2000
   1870000   93.101377     -929.89807      0             -777.79658     -4.9765511    
SHAKE stats (type/ave/delta/count) on step 1880000
Bond:   1   1         1.55941e-06     4000
Angle:  1   109.47    0.000152511     2000
   1880000   96.174343     -926.21564      0             -769.09379     -5.1739162    
SHAKE stats (type/ave/delta/count) on step 1890000
Bond:   1   1         1.29232e-06     4000
Angle:  1   109.47    0.000102072     2000
   1890000   97.212464     -923.26987      0             -764.45203     -8.6044733    
SHAKE stats (type/ave/delta/count) on step 1900000
Bond:   1   1         1.32141e-06     4000
Angle:  1   109.47    9.66466e-05     2000
   1900000   94.737364     -925.10775      0             -770.33352     -2.8592264    
SHAKE stats (type/ave/delta/count) on step 1910000
Bond:   1   1         1.35183e-06     4000
Angle:  1   109.47    0.000108781     2000
   1910000   94.289078     -926.13874      0             -772.09689      1.0013159    
SHAKE stats (type/ave/delta/count) on step 1920000
Bond:   1   1         1.33291e-06     4000
Angle:  1   109.47    9.52427e-05     2000
   1920000   93.648327     -931.84246      0             -778.84741     -8.1213779    
SHAKE stats (type/ave/delta/count) on step 1930000
Bond:   1   1         1.20526e-06     4000
Angle:  1   109.47    9.48411e-05     2000
   1930000   94.53298      -920.89367      0             -766.45334     -8.1353748    
SHAKE stats (type/ave/delta/count) on step 1940000
Bond:   1   1         1.15604e-06     4000
Angle:  1   109.47    9.51145e-05     2000
   1940000   94.763007     -929.51298      0             -774.69686      2.5236287    
SHAKE stats (type/ave/delta/count) on step 1950000
Bond:   1   1         1.24026e-06     4000
Angle:  1   109.47    9.14753e-05     2000
   1950000   94.926645     -930.59101      0             -775.50755     -11.565473    
SHAKE stats (type/ave/delta/count) on step 1960000
Bond:   1   1         1.13123e-06     4000
Angle:  1   109.47    8.69585e-05     2000
   1960000   94.854945     -925.10158      0             -770.13526     -7.0081875    
SHAKE stats (type/ave/delta/count) on step 1970000
Bond:   1   1         1.10811e-06     4000
Angle:  1   109.47    0.000103053     2000
   1970000   95.531503     -931.14665      0             -775.07502      0.99806839   
SHAKE stats (type/ave/delta/count) on step 1980000
Bond:   1   1         1.50518e-06     4000
Angle:  1   109.47    0.000104998     2000
   1980000   93.502282     -931.20768      0             -778.45123     -11.628716    
SHAKE stats (type/ave/delta/count) on step 1990000
Bond:   1   1         1.64908e-06     4000
Angle:  1   109.47    0.000115601     2000
   1990000   94.778209     -925.35897      0             -770.51802     -15.955472    
SHAKE stats (type/ave/delta/count) on step 2000000
Bond:   1   1         1.12946e-06     4000
Angle:  1   109.47    9.0828e-05      2000
   2000000   95.484758     -930.62285      0             -774.62759     -6.0590544    
Loop time of 12011.8 on 640 procs for 2000000 steps with 14640 atoms

Performance: 14.386 ns/day, 1.668 hours/ns, 166.503 timesteps/s, 2.438 Matom-step/s
100.0% CPU use with 640 MPI tasks x 1 OpenMP threads

MPI task timing breakdown:
Section |  min time  |  avg time  |  max time  |%varavg| %total
---------------------------------------------------------------
Pair    | 0.17636    | 100.46     | 3554.2     |3912.5 |  0.84
Bond    | 0.16259    | 0.2975     | 0.56958    |  16.4 |  0.00
Kspace  | 7147.5     | 10513      | 10714      | 379.1 | 87.52
Neigh   | 423.88     | 443.11     | 448.64     |  29.9 |  3.69
Comm    | 7.1955     | 89.657     | 545.56     |1319.6 |  0.75
Output  | 14.886     | 82.806     | 140.85     | 381.0 |  0.69
Modify  | 297.83     | 684.77     | 838.54     | 404.3 |  5.70
Other   |            | 97.41      |            |       |  0.81

Nlocal:         22.875 ave         600 max           0 min
Histogram: 554 58 11 6 0 2 0 2 1 6
Nghost:        224.283 ave        3277 max           0 min
Histogram: 462 122 14 15 11 9 4 0 2 1
Neighs:        3160.42 ave      158727 max           0 min
Histogram: 619 9 1 2 0 2 0 1 3 3

Total # of neighbors = 2022667
Ave neighs/atom = 138.16031
Ave special neighs/atom = 0.81967213
Neighbor list builds = 100114
Dangerous builds = 0
undump DUMP0
write_restart nvt_prod.restart.*
System init for write_restart ...
PPPM initialization ...
  using 12-bit tables for long-range coulomb (src/kspace.cpp:342)
  G vector (1/distance) = 0.28515695
  grid = 80 80 80
  stencil order = 5
  estimated absolute RMS force accuracy = 0.00017907316
  estimated relative force accuracy = 1.2435943e-05
  using double precision KISS FFT
  3d grid and FFT values/proc = 4335 960
Generated 0 of 3 mixed pair_coeff terms from geometric mixing rule

dump DUMP1 all atom 100 nvt_prod_1.lammpstrj
run 2000000
PPPM initialization ...
  using 12-bit tables for long-range coulomb (src/kspace.cpp:342)
  G vector (1/distance) = 0.28515695
  grid = 80 80 80
  stencil order = 5
  estimated absolute RMS force accuracy = 0.00017907316
  estimated relative force accuracy = 1.2435943e-05
  using double precision KISS FFT
  3d grid and FFT values/proc = 4335 960
Generated 0 of 3 mixed pair_coeff terms from geometric mixing rule
SHAKE stats (type/ave/delta/count) on step 2000000
Bond:   1   1         1.12946e-06     4000
Angle:  1   109.47    9.0828e-05      2000
Per MPI rank memory allocation (min/avg/max) = 7.999 | 8.177 | 8.845 Mbytes
   Step          Temp          E_pair         E_mol          TotEng         Press     
   2000000   95.484758     -930.62285      0             -774.62759     -6.0498011    
SHAKE stats (type/ave/delta/count) on step 2010000
Bond:   1   1         1.53707e-06     4000
Angle:  1   109.47    0.000136352     2000
   2010000   93.266579     -921.44192      0             -769.07054     -8.8157033    
SHAKE stats (type/ave/delta/count) on step 2020000
Bond:   1   1         1.14973e-06     4000
Angle:  1   109.47    9.14974e-05     2000
   2020000   95.918791     -923.40229      0             -766.69794     -5.8582204    
SHAKE stats (type/ave/delta/count) on step 2030000
Bond:   1   1         1.1875e-06      4000
Angle:  1   109.47    8.62215e-05     2000
   2030000   93.709463     -929.55011      0             -776.45519     -13.981343    
SHAKE stats (type/ave/delta/count) on step 2040000
Bond:   1   1         1.04999e-06     4000
Angle:  1   109.47    8.74089e-05     2000
   2040000   96.603057     -927.80299      0             -769.98075     -10.188904    
SHAKE stats (type/ave/delta/count) on step 2050000
Bond:   1   1         1.13857e-06     4000
Angle:  1   109.47    9.82935e-05     2000
   2050000   94.411533     -928.47927      0             -774.23735     -8.2649483    
SHAKE stats (type/ave/delta/count) on step 2060000
Bond:   1   1         1.16721e-06     4000
Angle:  1   109.47    9.68073e-05     2000
   2060000   95.189345     -929.36566      0             -773.85302     -2.1262256    
SHAKE stats (type/ave/delta/count) on step 2070000
Bond:   1   1         1.29745e-06     4000
Angle:  1   109.47    0.000100492     2000
   2070000   95.550627     -925.90726      0             -769.80439     -9.3428229    
SHAKE stats (type/ave/delta/count) on step 2080000
Bond:   1   1         1.24964e-06     4000
Angle:  1   109.47    9.54767e-05     2000
   2080000   92.512635     -923.90675      0             -772.76711     -2.707414     
SHAKE stats (type/ave/delta/count) on step 2090000
Bond:   1   1         1.23694e-06     4000
Angle:  1   109.47    0.000122433     2000
   2090000   93.871619     -929.52748      0             -776.16764     -0.44953361   
SHAKE stats (type/ave/delta/count) on step 2100000
Bond:   1   1         1.29647e-06     4000
Angle:  1   109.47    0.000103698     2000
   2100000   96.787418     -927.76559      0             -769.64214     -6.2452881    
SHAKE stats (type/ave/delta/count) on step 2110000
Bond:   1   1         1.6965e-06      4000
Angle:  1   109.47    0.000125181     2000
   2110000   92.525382     -928.61056      0             -777.45009     -1.0446298    
SHAKE stats (type/ave/delta/count) on step 2120000
Bond:   1   1         1.25157e-06     4000
Angle:  1   109.47    9.4912e-05      2000
   2120000   95.82364      -926.79577      0             -770.24687      1.4750061    
SHAKE stats (type/ave/delta/count) on step 2130000
Bond:   1   1         1.32289e-06     4000
Angle:  1   109.47    9.041e-05       2000
   2130000   92.732458     -926.94755      0             -775.44878      0.99641498   
SHAKE stats (type/ave/delta/count) on step 2140000
Bond:   1   1         1.58315e-06     4000
Angle:  1   109.47    0.000109924     2000
   2140000   95.335215     -928.40592      0             -772.65497      2.5658704    
SHAKE stats (type/ave/delta/count) on step 2150000
Bond:   1   1         1.3894e-06      4000
Angle:  1   109.47    0.000107815     2000
   2150000   97.290233     -929.77741      0             -770.83251     -6.8804172    
SHAKE stats (type/ave/delta/count) on step 2160000
Bond:   1   1         1.11059e-06     4000
Angle:  1   109.47    0.0001104       2000
   2160000   95.115466     -928.18026      0             -772.78832     -0.48501121   
SHAKE stats (type/ave/delta/count) on step 2170000
Bond:   1   1         1.32753e-06     4000
Angle:  1   109.47    9.71171e-05     2000
   2170000   95.502004     -928.08047      0             -772.05703     -3.4741625    
SHAKE stats (type/ave/delta/count) on step 2180000
Bond:   1   1         1.14641e-06     4000
Angle:  1   109.47    9.99077e-05     2000
   2180000   94.36973      -925.01605      0             -770.84243     -1.360307     
SHAKE stats (type/ave/delta/count) on step 2190000
Bond:   1   1         1.64747e-06     4000
Angle:  1   109.47    0.00013753      2000
   2190000   95.44805      -924.45576      0             -768.52047     -7.7645646    
SHAKE stats (type/ave/delta/count) on step 2200000
Bond:   1   1         1.24306e-06     4000
Angle:  1   109.47    9.43359e-05     2000
   2200000   95.068746     -924.39968      0             -769.08406     -12.868255    
SHAKE stats (type/ave/delta/count) on step 2210000
Bond:   1   1         1.15642e-06     4000
Angle:  1   109.47    9.89751e-05     2000
   2210000   95.843738     -926.86293      0             -770.2812      -3.0071943    
SHAKE stats (type/ave/delta/count) on step 2220000
Bond:   1   1         1.10131e-06     4000
Angle:  1   109.47    9.48089e-05     2000
   2220000   93.680098     -926.18128      0             -773.13433      3.5161553    
SHAKE stats (type/ave/delta/count) on step 2230000
Bond:   1   1         1.46291e-06     4000
Angle:  1   109.47    0.000109409     2000
   2230000   96.833766     -926.62745      0             -768.42829     -11.513143    
SHAKE stats (type/ave/delta/count) on step 2240000
Bond:   1   1         1.28534e-06     4000
Angle:  1   109.47    9.59149e-05     2000
   2240000   94.989414     -926.33911      0             -771.1531      -14.397025    
SHAKE stats (type/ave/delta/count) on step 2250000
Bond:   1   1         1.35421e-06     4000
Angle:  1   109.47    9.68753e-05     2000
   2250000   93.590445     -929.1489       0             -776.24842     -2.7880543    
SHAKE stats (type/ave/delta/count) on step 2260000
Bond:   1   1         1.14347e-06     4000
Angle:  1   109.47    9.67254e-05     2000
   2260000   94.947321     -928.61334      0             -773.49609     -5.1478916    
SHAKE stats (type/ave/delta/count) on step 2270000
Bond:   1   1         1.32192e-06     4000
Angle:  1   109.47    0.000111396     2000
   2270000   96.35621      -927.49289      0             -770.07393      3.4137028    
SHAKE stats (type/ave/delta/count) on step 2280000
Bond:   1   1         1.20242e-06     4000
Angle:  1   109.47    9.90655e-05     2000
   2280000   93.278433     -926.97843      0             -774.58769     -10.492881    
SHAKE stats (type/ave/delta/count) on step 2290000
Bond:   1   1         1.18581e-06     4000
Angle:  1   109.47    0.000120416     2000
   2290000   96.084555     -933.07596      0             -776.1008      -3.1202337    
SHAKE stats (type/ave/delta/count) on step 2300000
Bond:   1   1         1.27161e-06     4000
Angle:  1   109.47    0.000102107     2000
   2300000   93.770147     -928.56225      0             -775.36818     -0.14464739   
SHAKE stats (type/ave/delta/count) on step 2310000
Bond:   1   1         1.3219e-06      4000
Angle:  1   109.47    0.000101645     2000
   2310000   95.277492     -923.10888      0             -767.45223     -10.257037    
SHAKE stats (type/ave/delta/count) on step 2320000
Bond:   1   1         1.16104e-06     4000
Angle:  1   109.47    8.87948e-05     2000
   2320000   95.554101     -927.55543      0             -771.44688     -2.802809     
SHAKE stats (type/ave/delta/count) on step 2330000
Bond:   1   1         1.71888e-06     4000
Angle:  1   109.47    0.00014759      2000
   2330000   95.010727     -930.16791      0             -774.94708     -10.212635    
SHAKE stats (type/ave/delta/count) on step 2340000
Bond:   1   1         1.25087e-06     4000
Angle:  1   109.47    9.29168e-05     2000
   2340000   92.716797     -925.44668      0             -773.97349     -6.9370954    
SHAKE stats (type/ave/delta/count) on step 2350000
Bond:   1   1         1.22973e-06     4000
Angle:  1   109.47    9.48397e-05     2000
   2350000   94.336505     -927.24956      0             -773.13022     -10.136616    
SHAKE stats (type/ave/delta/count) on step 2360000
Bond:   1   1         1.38697e-06     4000
Angle:  1   109.47    0.000106762     2000
   2360000   96.878089     -932.89212      0             -774.62054      8.1928689    
SHAKE stats (type/ave/delta/count) on step 2370000
Bond:   1   1         1.27611e-06     4000
Angle:  1   109.47    0.000105886     2000
   2370000   94.407192     -931.03873      0             -776.80391     -1.366256     
SHAKE stats (type/ave/delta/count) on step 2380000
Bond:   1   1         1.08591e-06     4000
Angle:  1   109.47    9.56789e-05     2000
   2380000   94.604938     -925.97852      0             -771.42064     -3.674224     
SHAKE stats (type/ave/delta/count) on step 2390000
Bond:   1   1         1.22909e-06     4000
Angle:  1   109.47    9.18868e-05     2000
   2390000   94.734796     -925.61085      0             -770.84082     -5.170701     
SHAKE stats (type/ave/delta/count) on step 2400000
Bond:   1   1         1.14598e-06     4000
Angle:  1   109.47    9.91583e-05     2000
   2400000   93.544012     -921.05579      0             -768.23117     -3.6380614    
SHAKE stats (type/ave/delta/count) on step 2410000
Bond:   1   1         1.90948e-06     4000
Angle:  1   109.47    0.000122385     2000
   2410000   95.883591     -927.22939      0             -770.58255     -6.7856639    
SHAKE stats (type/ave/delta/count) on step 2420000
Bond:   1   1         1.34176e-06     4000
Angle:  1   109.47    9.61322e-05     2000
   2420000   94.316657     -924.09766      0             -770.01075     -0.94644845   
SHAKE stats (type/ave/delta/count) on step 2430000
Bond:   1   1         1.26164e-06     4000
Angle:  1   109.47    8.85277e-05     2000
   2430000   94.746451     -930.83146      0             -776.04238     -4.3769957    
SHAKE stats (type/ave/delta/count) on step 2440000
Bond:   1   1         1.36747e-06     4000
Angle:  1   109.47    0.000108845     2000
   2440000   94.588446     -923.67863      0             -769.14769     -5.273156     
SHAKE stats (type/ave/delta/count) on step 2450000
Bond:   1   1         1.65399e-06     4000
Angle:  1   109.47    0.000125537     2000
   2450000   95.590474     -926.3677       0             -770.19973     -10.539017    
SHAKE stats (type/ave/delta/count) on step 2460000
Bond:   1   1         1.10994e-06     4000
Angle:  1   109.47    0.000115071     2000
   2460000   95.071576     -928.29982      0             -772.97959     -14.439216    
SHAKE stats (type/ave/delta/count) on step 2470000
Bond:   1   1         1.20136e-06     4000
Angle:  1   109.47    9.56189e-05     2000
   2470000   95.467157     -923.27152      0             -767.30502     -5.547449     
SHAKE stats (type/ave/delta/count) on step 2480000
Bond:   1   1         1.69841e-06     4000
Angle:  1   109.47    0.000133856     2000
   2480000   95.295289     -924.03673      0             -768.35101      1.1459264    
SHAKE stats (type/ave/delta/count) on step 2490000
Bond:   1   1         1.20594e-06     4000
Angle:  1   109.47    0.000107891     2000
   2490000   93.296887     -926.17388      0             -773.75299     -7.3081288    
SHAKE stats (type/ave/delta/count) on step 2500000
Bond:   1   1         1.33414e-06     4000
Angle:  1   109.47    9.87203e-05     2000
   2500000   93.813542     -927.64348      0             -774.37851     -4.6318175    
SHAKE stats (type/ave/delta/count) on step 2510000
Bond:   1   1         1.53606e-06     4000
Angle:  1   109.47    0.000112672     2000
   2510000   92.836629     -927.27756      0             -775.6086      -10.511053    
SHAKE stats (type/ave/delta/count) on step 2520000
Bond:   1   1         1.23797e-06     4000
Angle:  1   109.47    0.000116201     2000
   2520000   94.356898     -922.01581      0             -767.86316     -1.9267644    
SHAKE stats (type/ave/delta/count) on step 2530000
Bond:   1   1         1.21431e-06     4000
Angle:  1   109.47    0.00010185      2000
   2530000   96.197283     -927.31416      0             -770.15483     -5.246716     
SHAKE stats (type/ave/delta/count) on step 2540000
Bond:   1   1         1.10043e-06     4000
Angle:  1   109.47    0.000103028     2000
   2540000   97.014105     -927.46757      0             -768.97378     -7.0475958    
SHAKE stats (type/ave/delta/count) on step 2550000
Bond:   1   1         1.31027e-06     4000
Angle:  1   109.47    9.61412e-05     2000
   2550000   93.591293     -927.33726      0             -774.43539     -4.4423194    
SHAKE stats (type/ave/delta/count) on step 2560000
Bond:   1   1         1.61517e-06     4000
Angle:  1   109.47    0.000103673     2000
   2560000   95.810752     -932.05858      0             -775.53073     -10.305108    
SHAKE stats (type/ave/delta/count) on step 2570000
Bond:   1   1         1.23431e-06     4000
Angle:  1   109.47    0.000108204     2000
   2570000   94.736679     -929.77333      0             -775.00022     -13.398849    
SHAKE stats (type/ave/delta/count) on step 2580000
Bond:   1   1         1.21198e-06     4000
Angle:  1   109.47    9.38479e-05     2000
   2580000   94.326712     -926.61841      0             -772.51508     -10.866018    
SHAKE stats (type/ave/delta/count) on step 2590000
Bond:   1   1         1.08246e-06     4000
Angle:  1   109.47    8.85323e-05     2000
   2590000   94.324919     -918.71827      0             -764.61786     -12.104423    
SHAKE stats (type/ave/delta/count) on step 2600000
Bond:   1   1         1.3086e-06      4000
Angle:  1   109.47    8.64339e-05     2000
   2600000   93.536192     -930.57923      0             -777.76738     -9.2813055    
SHAKE stats (type/ave/delta/count) on step 2610000
Bond:   1   1         1.26251e-06     4000
Angle:  1   109.47    9.22172e-05     2000
   2610000   94.550973     -927.74961      0             -773.27989     -5.9900772    
SHAKE stats (type/ave/delta/count) on step 2620000
Bond:   1   1         1.22071e-06     4000
Angle:  1   109.47    8.79789e-05     2000
   2620000   93.515289     -924.52017      0             -771.74246     -3.2730639    
SHAKE stats (type/ave/delta/count) on step 2630000
Bond:   1   1         1.27537e-06     4000
Angle:  1   109.47    8.64471e-05     2000
   2630000   94.465416     -934.47127      0             -780.14133     -5.0728901    
SHAKE stats (type/ave/delta/count) on step 2640000
Bond:   1   1         1.22767e-06     4000
Angle:  1   109.47    9.02686e-05     2000
   2640000   96.916448     -930.42229      0             -772.08805     -13.138695    
SHAKE stats (type/ave/delta/count) on step 2650000
Bond:   1   1         1.37477e-06     4000
Angle:  1   109.47    9.20162e-05     2000
   2650000   95.419236     -922.89039      0             -767.00218     -2.9690874    
SHAKE stats (type/ave/delta/count) on step 2660000
Bond:   1   1         1.49377e-06     4000
Angle:  1   109.47    0.000110413     2000
   2660000   95.042326     -922.63837      0             -767.36591     -4.3363002    
SHAKE stats (type/ave/delta/count) on step 2670000
Bond:   1   1         1.20159e-06     4000
Angle:  1   109.47    9.45422e-05     2000
   2670000   93.5045       -925.95788      0             -773.1978      -1.4510251    
SHAKE stats (type/ave/delta/count) on step 2680000
Bond:   1   1         1.1679e-06      4000
Angle:  1   109.47    9.27641e-05     2000
   2680000   92.294779     -927.20325      0             -776.41952     -9.6166361    
SHAKE stats (type/ave/delta/count) on step 2690000
Bond:   1   1         1.28695e-06     4000
Angle:  1   109.47    0.000106522     2000
   2690000   95.864405     -927.06223      0             -770.44673     -1.7203619    
SHAKE stats (type/ave/delta/count) on step 2700000
Bond:   1   1         1.43398e-06     4000
Angle:  1   109.47    9.72428e-05     2000
   2700000   94.878968     -922.40049      0             -767.39492     -8.5223764    
SHAKE stats (type/ave/delta/count) on step 2710000
Bond:   1   1         1.39382e-06     4000
Angle:  1   109.47    0.000106675     2000
   2710000   93.045468     -931.82083      0             -779.81068     -0.38249105   
SHAKE stats (type/ave/delta/count) on step 2720000
Bond:   1   1         1.53228e-06     4000
Angle:  1   109.47    0.000123029     2000
   2720000   92.666325     -922.59467      0             -771.20394     -10.474767    
SHAKE stats (type/ave/delta/count) on step 2730000
Bond:   1   1         1.26985e-06     4000
Angle:  1   109.47    0.000123462     2000
   2730000   96.304951     -926.95714      0             -769.62191     -4.7256304    
SHAKE stats (type/ave/delta/count) on step 2740000
Bond:   1   1         1.28728e-06     4000
Angle:  1   109.47    0.000107931     2000
   2740000   94.818215     -930.7194       0             -775.81308     -6.2099206    
SHAKE stats (type/ave/delta/count) on step 2750000
Bond:   1   1         1.39493e-06     4000
Angle:  1   109.47    0.000106754     2000
   2750000   92.850072     -925.82797      0             -774.13705     -6.8202321    
SHAKE stats (type/ave/delta/count) on step 2760000
Bond:   1   1         1.18997e-06     4000
Angle:  1   109.47    9.36843e-05     2000
   2760000   96.226531     -925.72207      0             -768.51496     -7.9714777    
SHAKE stats (type/ave/delta/count) on step 2770000
Bond:   1   1         1.34894e-06     4000
Angle:  1   109.47    0.00010925      2000
   2770000   95.69732      -927.24375      0             -770.90123     -0.19968564   
SHAKE stats (type/ave/delta/count) on step 2780000
Bond:   1   1         1.26329e-06     4000
Angle:  1   109.47    0.000115234     2000
   2780000   96.177791     -924.04042      0             -766.91294     -11.01639     
SHAKE stats (type/ave/delta/count) on step 2790000
Bond:   1   1         1.2391e-06      4000
Angle:  1   109.47    9.35745e-05     2000
   2790000   96.004273     -923.45113      0             -766.60713      1.8388752    
SHAKE stats (type/ave/delta/count) on step 2800000
Bond:   1   1         1.14485e-06     4000
Angle:  1   109.47    9.80906e-05     2000
   2800000   93.10407      -923.72746      0             -771.62157     -2.6533515    
SHAKE stats (type/ave/delta/count) on step 2810000
Bond:   1   1         1.3985e-06      4000
Angle:  1   109.47    9.22937e-05     2000
   2810000   93.671266     -927.88057      0             -774.84805     -10.549511    
SHAKE stats (type/ave/delta/count) on step 2820000
Bond:   1   1         1.25618e-06     4000
Angle:  1   109.47    0.000101692     2000
   2820000   94.658386     -918.60304      0             -763.95784     -6.5403924    
SHAKE stats (type/ave/delta/count) on step 2830000
Bond:   1   1         1.47851e-06     4000
Angle:  1   109.47    0.000112902     2000
   2830000   94.342858     -926.45569      0             -772.32597     -12.079329    
SHAKE stats (type/ave/delta/count) on step 2840000
Bond:   1   1         1.07634e-06     4000
Angle:  1   109.47    0.000111317     2000
   2840000   96.013357     -927.79107      0             -770.93222     -5.9262631    
SHAKE stats (type/ave/delta/count) on step 2850000
Bond:   1   1         1.29011e-06     4000
Angle:  1   109.47    9.66344e-05     2000
   2850000   92.370416     -926.22791      0             -775.32061     -5.8512695    
SHAKE stats (type/ave/delta/count) on step 2860000
Bond:   1   1         1.10009e-06     4000
Angle:  1   109.47    9.27162e-05     2000
   2860000   96.218053     -930.9088       0             -773.71554     -8.2779938    
SHAKE stats (type/ave/delta/count) on step 2870000
Bond:   1   1         1.2812e-06      4000
Angle:  1   109.47    0.000133189     2000
   2870000   95.06236      -930.79245      0             -775.48727     -0.59937391   
SHAKE stats (type/ave/delta/count) on step 2880000
Bond:   1   1         1.15938e-06     4000
Angle:  1   109.47    0.000108982     2000
   2880000   93.320272     -924.56454      0             -772.10544     -1.1895443    
SHAKE stats (type/ave/delta/count) on step 2890000
Bond:   1   1         1.11564e-06     4000
Angle:  1   109.47    8.61562e-05     2000
   2890000   95.679127     -928.56123      0             -772.24842     -12.488238    
SHAKE stats (type/ave/delta/count) on step 2900000
Bond:   1   1         1.72606e-06     4000
Angle:  1   109.47    0.000117457     2000
   2900000   95.59574      -930.21759      0             -774.04102      2.019053     
SHAKE stats (type/ave/delta/count) on step 2910000
Bond:   1   1         1.12683e-06     4000
Angle:  1   109.47    0.000103728     2000
   2910000   95.134712     -923.11567      0             -767.69228     -0.49182423   
SHAKE stats (type/ave/delta/count) on step 2920000
Bond:   1   1         1.06786e-06     4000
Angle:  1   109.47    9.47216e-05     2000
   2920000   94.799671     -924.97739      0             -770.10137     -3.205635     
SHAKE stats (type/ave/delta/count) on step 2930000
Bond:   1   1         1.5105e-06      4000
Angle:  1   109.47    8.71936e-05     2000
   2930000   93.789549     -924.67811      0             -771.45234     -5.9121396    
SHAKE stats (type/ave/delta/count) on step 2940000
Bond:   1   1         1.5495e-06      4000
Angle:  1   109.47    0.000128098     2000
   2940000   94.969637     -922.94463      0             -767.79094     -3.7680598    
SHAKE stats (type/ave/delta/count) on step 2950000
Bond:   1   1         1.41298e-06     4000
Angle:  1   109.47    0.000107871     2000
   2950000   94.018288     -928.72748      0             -775.12802     -16.728731    
SHAKE stats (type/ave/delta/count) on step 2960000
Bond:   1   1         1.47026e-06     4000
Angle:  1   109.47    9.37512e-05     2000
   2960000   94.723468     -927.73127      0             -772.97974     -10.403267    
SHAKE stats (type/ave/delta/count) on step 2970000
Bond:   1   1         1.64677e-06     4000
Angle:  1   109.47    0.000152397     2000
   2970000   97.775966     -930.27978      0             -770.54133     -6.8816474    
SHAKE stats (type/ave/delta/count) on step 2980000
Bond:   1   1         1.27922e-06     4000
Angle:  1   109.47    9.96218e-05     2000
   2980000   97.899535     -924.95397      0             -765.01365     -16.412341    
SHAKE stats (type/ave/delta/count) on step 2990000
Bond:   1   1         1.43652e-06     4000
Angle:  1   109.47    0.000105729     2000
   2990000   97.037579     -922.16858      0             -763.63645     -8.1151338    
SHAKE stats (type/ave/delta/count) on step 3000000
Bond:   1   1         1.19854e-06     4000
Angle:  1   109.47    8.91244e-05     2000
   3000000   93.742681     -921.49519      0             -768.346       -3.6221777    
SHAKE stats (type/ave/delta/count) on step 3010000
Bond:   1   1         1.41781e-06     4000
Angle:  1   109.47    0.00010913      2000
   3010000   95.16829      -927.57648      0             -772.09824     -0.06885986   
SHAKE stats (type/ave/delta/count) on step 3020000
Bond:   1   1         1.22094e-06     4000
Angle:  1   109.47    9.18734e-05     2000
   3020000   94.588841     -927.6802       0             -773.14862      1.1887219    
SHAKE stats (type/ave/delta/count) on step 3030000
Bond:   1   1         1.18657e-06     4000
Angle:  1   109.47    0.000102555     2000
   3030000   95.775893     -925.4828       0             -769.01191     -11.451838    
SHAKE stats (type/ave/delta/count) on step 3040000
Bond:   1   1         1.11342e-06     4000
Angle:  1   109.47    9.78725e-05     2000
   3040000   95.752172     -921.25918      0             -764.82704     -5.9432669    
SHAKE stats (type/ave/delta/count) on step 3050000
Bond:   1   1         1.08881e-06     4000
Angle:  1   109.47    9.0443e-05      2000
   3050000   94.255225     -926.5029       0             -772.51635     -10.7095      
SHAKE stats (type/ave/delta/count) on step 3060000
Bond:   1   1         1.06881e-06     4000
Angle:  1   109.47    0.000113902     2000
   3060000   95.027576     -926.25435      0             -771.00599     -10.99861     
SHAKE stats (type/ave/delta/count) on step 3070000
Bond:   1   1         1.25429e-06     4000
Angle:  1   109.47    9.69685e-05     2000
   3070000   94.337367     -925.09783      0             -770.97709     -5.5183961    
SHAKE stats (type/ave/delta/count) on step 3080000
Bond:   1   1         1.24011e-06     4000
Angle:  1   109.47    9.46326e-05     2000
   3080000   94.092352     -929.1968       0             -775.47634     -5.6844463    
SHAKE stats (type/ave/delta/count) on step 3090000
Bond:   1   1         1.17154e-06     4000
Angle:  1   109.47    0.000109158     2000
   3090000   94.663427     -925.19384      0             -770.54041     -0.58585126   
SHAKE stats (type/ave/delta/count) on step 3100000
Bond:   1   1         1.426e-06       4000
Angle:  1   109.47    0.00011399      2000
   3100000   94.876374     -928.39782      0             -773.39649     -2.6216737    
SHAKE stats (type/ave/delta/count) on step 3110000
Bond:   1   1         1.5974e-06      4000
Angle:  1   109.47    0.000111902     2000
   3110000   92.508282     -927.77999      0             -776.64745     -2.2253367    
SHAKE stats (type/ave/delta/count) on step 3120000
Bond:   1   1         1.3255e-06      4000
Angle:  1   109.47    0.00010589      2000
   3120000   96.370063     -923.39027      0             -765.94867     -8.453136     
SHAKE stats (type/ave/delta/count) on step 3130000
Bond:   1   1         1.23336e-06     4000
Angle:  1   109.47    9.81568e-05     2000
   3130000   94.16939      -928.44531      0             -774.59899     -4.7937276    
SHAKE stats (type/ave/delta/count) on step 3140000
Bond:   1   1         1.20939e-06     4000
Angle:  1   109.47    8.92072e-05     2000
   3140000   95.821459     -930.00247      0             -773.45714     -8.2676312    
SHAKE stats (type/ave/delta/count) on step 3150000
Bond:   1   1         1.20175e-06     4000
Angle:  1   109.47    9.08737e-05     2000
   3150000   97.065093     -923.76657      0             -765.18948     -5.3194773    
SHAKE stats (type/ave/delta/count) on step 3160000
Bond:   1   1         1.27052e-06     4000
Angle:  1   109.47    0.000113888     2000
   3160000   93.618394     -924.46897      0             -771.52282     -5.177349     
SHAKE stats (type/ave/delta/count) on step 3170000
Bond:   1   1         1.24273e-06     4000
Angle:  1   109.47    0.000100712     2000
   3170000   94.026886     -927.33196      0             -773.71845     -3.3568383    
SHAKE stats (type/ave/delta/count) on step 3180000
Bond:   1   1         1.37652e-06     4000
Angle:  1   109.47    9.67087e-05     2000
   3180000   92.336325     -922.64937      0             -771.79776     -7.0657806    
SHAKE stats (type/ave/delta/count) on step 3190000
Bond:   1   1         1.1699e-06      4000
Angle:  1   109.47    9.3225e-05      2000
   3190000   94.701151     -919.18532      0             -764.47025     -11.564308    
SHAKE stats (type/ave/delta/count) on step 3200000
Bond:   1   1         1.24613e-06     4000
Angle:  1   109.47    9.54199e-05     2000
   3200000   95.260542     -927.35333      0             -771.72438     -11.119508    
SHAKE stats (type/ave/delta/count) on step 3210000
Bond:   1   1         2.28075e-06     4000
Angle:  1   109.47    0.000162605     2000
   3210000   95.243025     -930.89358      0             -775.29324     -7.9578316    
SHAKE stats (type/ave/delta/count) on step 3220000
Bond:   1   1         1.34084e-06     4000
Angle:  1   109.47    0.000107047     2000
   3220000   95.481114     -927.99765      0             -772.00835     -16.263687    
SHAKE stats (type/ave/delta/count) on step 3230000
Bond:   1   1         1.23415e-06     4000
Angle:  1   109.47    0.000111237     2000
   3230000   94.329943     -921.7003       0             -767.59168     -7.6095184    
SHAKE stats (type/ave/delta/count) on step 3240000
Bond:   1   1         1.4279e-06      4000
Angle:  1   109.47    0.000111832     2000
   3240000   96.134767     -929.84389      0             -772.7867      -5.4782889    
SHAKE stats (type/ave/delta/count) on step 3250000
Bond:   1   1         1.18716e-06     4000
Angle:  1   109.47    0.000102026     2000
   3250000   95.555941     -931.52854      0             -775.41699     -0.57766915   
SHAKE stats (type/ave/delta/count) on step 3260000
Bond:   1   1         1.16969e-06     4000
Angle:  1   109.47    0.000109868     2000
   3260000   93.962776     -930.90757      0             -777.3988      -2.6857407    
SHAKE stats (type/ave/delta/count) on step 3270000
Bond:   1   1         1.26375e-06     4000
Angle:  1   109.47    9.38262e-05     2000
   3270000   92.434316     -923.80977      0             -772.79807     -6.4717901    
SHAKE stats (type/ave/delta/count) on step 3280000
Bond:   1   1         1.19594e-06     4000
Angle:  1   109.47    0.000107995     2000
   3280000   94.540599     -923.91246      0             -769.45969     -6.772403     
SHAKE stats (type/ave/delta/count) on step 3290000
Bond:   1   1         1.62189e-06     4000
Angle:  1   109.47    0.000107589     2000
   3290000   94.423026     -920.95959      0             -766.6989      -8.4997644    
SHAKE stats (type/ave/delta/count) on step 3300000
Bond:   1   1         1.13543e-06     4000
Angle:  1   109.47    9.41744e-05     2000
[...]
Bond:   1   1         1.43101e-06     4000
Angle:  1   109.47    0.000107047     2000
   9220000   95.769694     -929.07942      0             -772.61866     -1.825929     
SHAKE stats (type/ave/delta/count) on step 9230000
Bond:   1   1         1.65888e-06     4000
Angle:  1   109.47    0.000140178     2000
   9230000   94.713038     -927.13947      0             -772.40498     -10.280563    
SHAKE stats (type/ave/delta/count) on step 9240000
Bond:   1   1         1.43726e-06     4000
Angle:  1   109.47    0.000111375     2000
   9240000   94.783302     -932.77321      0             -777.92393     -12.504348    
SHAKE stats (type/ave/delta/count) on step 9250000
Bond:   1   1         1.14525e-06     4000
Angle:  1   109.47    0.000108253     2000
   9250000   94.076924     -929.21941      0             -775.52416     -11.291831    
SHAKE stats (type/ave/delta/count) on step 9260000
Bond:   1   1         1.15966e-06     4000
Angle:  1   109.47    9.56847e-05     2000
   9260000   93.657658     -921.52123      0             -768.51093     -1.8562624    
SHAKE stats (type/ave/delta/count) on step 9270000
Bond:   1   1         1.68469e-06     4000
Angle:  1   109.47    0.000113289     2000
   9270000   95.311323     -926.07104      0             -770.35913     -8.6724497    
SHAKE stats (type/ave/delta/count) on step 9280000
Bond:   1   1         1.2286e-06      4000
Angle:  1   109.47    0.000101186     2000
   9280000   93.808559     -925.13486      0             -771.87804     -2.4331955    
SHAKE stats (type/ave/delta/count) on step 9290000
Bond:   1   1         1.29272e-06     4000
Angle:  1   109.47    9.45383e-05     2000
   9290000   94.613213     -930.32311      0             -775.75171     -8.3154336    
SHAKE stats (type/ave/delta/count) on step 9300000
Bond:   1   1         1.2629e-06      4000
Angle:  1   109.47    9.01645e-05     2000
   9300000   94.473182     -926.48826      0             -772.14563     -3.2295014    
SHAKE stats (type/ave/delta/count) on step 9310000
Bond:   1   1         1.42166e-06     4000
Angle:  1   109.47    0.00011044      2000
   9310000   95.071074     -926.33442      0             -771.015       -17.336723    
SHAKE stats (type/ave/delta/count) on step 9320000
Bond:   1   1         1.3795e-06      4000
Angle:  1   109.47    0.000141395     2000
   9320000   95.719565     -929.59857      0             -773.2197      -10.337036    
SHAKE stats (type/ave/delta/count) on step 9330000
Bond:   1   1         1.32728e-06     4000
Angle:  1   109.47    9.44886e-05     2000
   9330000   95.211707     -928.35493      0             -772.80576     -14.984197    
SHAKE stats (type/ave/delta/count) on step 9340000
Bond:   1   1         1.36735e-06     4000
Angle:  1   109.47    0.000144096     2000
   9340000   93.197123     -924.71256      0             -772.45465     -6.0317121    
SHAKE stats (type/ave/delta/count) on step 9350000
Bond:   1   1         1.30345e-06     4000
Angle:  1   109.47    0.000136034     2000
   9350000   94.890789     -934.66616      0             -779.64128     -6.4536681    
SHAKE stats (type/ave/delta/count) on step 9360000
Bond:   1   1         1.33247e-06     4000
Angle:  1   109.47    0.000117834     2000
   9360000   94.517042     -928.24701      0             -773.83273     -18.334295    
SHAKE stats (type/ave/delta/count) on step 9370000
Bond:   1   1         1.35448e-06     4000
Angle:  1   109.47    9.40653e-05     2000
   9370000   94.850848     -929.79068      0             -774.83105     -4.3112235    
SHAKE stats (type/ave/delta/count) on step 9380000
Bond:   1   1         1.03274e-06     4000
Angle:  1   109.47    9.26218e-05     2000
   9380000   94.627353     -923.36273      0             -768.76823     -11.64295     
SHAKE stats (type/ave/delta/count) on step 9390000
Bond:   1   1         1.21071e-06     4000
Angle:  1   109.47    0.000103989     2000
   9390000   94.561509     -930.14239      0             -775.65545     -5.522901     
SHAKE stats (type/ave/delta/count) on step 9400000
Bond:   1   1         1.31595e-06     4000
Angle:  1   109.47    9.05466e-05     2000
   9400000   95.699674     -930.28202      0             -773.93565     -11.639589    
SHAKE stats (type/ave/delta/count) on step 9410000
Bond:   1   1         1.27491e-06     4000
Angle:  1   109.47    9.16463e-05     2000
   9410000   95.006526     -930.96464      0             -775.75068     -7.0650808    
SHAKE stats (type/ave/delta/count) on step 9420000
Bond:   1   1         1.05634e-06     4000
Angle:  1   109.47    9.4169e-05      2000
   9420000   94.383214     -930.33808      0             -776.14243     -4.9772393    
SHAKE stats (type/ave/delta/count) on step 9430000
Bond:   1   1         1.342e-06       4000
Angle:  1   109.47    0.000104631     2000
   9430000   94.07327      -931.95836      0             -778.26908     -5.8162339    
SHAKE stats (type/ave/delta/count) on step 9440000
Bond:   1   1         1.14072e-06     4000
Angle:  1   109.47    9.93764e-05     2000
   9440000   96.431141     -927.44507      0             -769.90369     -7.6731234    
SHAKE stats (type/ave/delta/count) on step 9450000
Bond:   1   1         1.94432e-06     4000
Angle:  1   109.47    0.000135942     2000
   9450000   94.538442     -928.96795      0             -774.51871     -7.2585662    
SHAKE stats (type/ave/delta/count) on step 9460000
Bond:   1   1         1.1628e-06      4000
Angle:  1   109.47    9.42486e-05     2000
   9460000   95.310335     -927.14965      0             -771.43934     -8.9474478    
SHAKE stats (type/ave/delta/count) on step 9470000
Bond:   1   1         1.29428e-06     4000
Angle:  1   109.47    9.17912e-05     2000
   9470000   96.218429     -926.09516      0             -768.90129      2.6892563    
SHAKE stats (type/ave/delta/count) on step 9480000
Bond:   1   1         1.18659e-06     4000
Angle:  1   109.47    9.81661e-05     2000
   9480000   94.613547     -932.21         0             -777.63805     -2.2461111    
SHAKE stats (type/ave/delta/count) on step 9490000
Bond:   1   1         1.35449e-06     4000
Angle:  1   109.47    9.8862e-05      2000
   9490000   97.59858      -928.49242      0             -769.04377     -1.863541     
SHAKE stats (type/ave/delta/count) on step 9500000
Bond:   1   1         1.18789e-06     4000
Angle:  1   109.47    0.000102011     2000
   9500000   94.055468     -924.7747       0             -771.1145       0.14709234   
SHAKE stats (type/ave/delta/count) on step 9510000
Bond:   1   1         1.42393e-06     4000
Angle:  1   109.47    0.000114883     2000
   9510000   94.851048     -922.56505      0             -767.6051       4.72217      
SHAKE stats (type/ave/delta/count) on step 9520000
Bond:   1   1         1.1916e-06      4000
Angle:  1   109.47    9.39166e-05     2000
   9520000   96.689439     -925.17116      0             -767.20779     -8.1530034    
SHAKE stats (type/ave/delta/count) on step 9530000
Bond:   1   1         1.17681e-06     4000
Angle:  1   109.47    8.98083e-05     2000
   9530000   93.48414      -930.2154       0             -777.48858     -3.815772     
SHAKE stats (type/ave/delta/count) on step 9540000
Bond:   1   1         1.20732e-06     4000
Angle:  1   109.47    8.92894e-05     2000
   9540000   95.23112      -928.20798      0             -772.62709     -0.25605934   
SHAKE stats (type/ave/delta/count) on step 9550000
Bond:   1   1         1.33335e-06     4000
Angle:  1   109.47    0.00010762      2000
   9550000   93.373973     -924.62556      0             -772.07873      6.2694249    
SHAKE stats (type/ave/delta/count) on step 9560000
Bond:   1   1         1.43621e-06     4000
Angle:  1   109.47    0.00010431      2000
   9560000   94.170487     -925.68722      0             -771.83911     -8.4431784    
SHAKE stats (type/ave/delta/count) on step 9570000
Bond:   1   1         1.40247e-06     4000
Angle:  1   109.47    0.000116305     2000
   9570000   93.498506     -929.05665      0             -776.30637     -5.6045287    
SHAKE stats (type/ave/delta/count) on step 9580000
Bond:   1   1         1.38374e-06     4000
Angle:  1   109.47    0.000122395     2000
   9580000   94.312165     -925.58704      0             -771.50746     -5.6172436    
SHAKE stats (type/ave/delta/count) on step 9590000
Bond:   1   1         1.18306e-06     4000
Angle:  1   109.47    9.20895e-05     2000
   9590000   95.182081     -932.54584      0             -777.04507     -6.2830619    
SHAKE stats (type/ave/delta/count) on step 9600000
Bond:   1   1         1.15347e-06     4000
Angle:  1   109.47    0.000107191     2000
   9600000   95.398324     -926.67303      0             -770.81898     -3.0434075    
SHAKE stats (type/ave/delta/count) on step 9610000
Bond:   1   1         1.44779e-06     4000
Angle:  1   109.47    0.00010783      2000
   9610000   94.483655     -927.39253      0             -773.03279     -7.9786177    
SHAKE stats (type/ave/delta/count) on step 9620000
Bond:   1   1         1.30683e-06     4000
Angle:  1   109.47    9.72879e-05     2000
   9620000   95.970043     -931.66333      0             -774.87525     -4.1129878    
SHAKE stats (type/ave/delta/count) on step 9630000
Bond:   1   1         1.55845e-06     4000
Angle:  1   109.47    0.000123293     2000
   9630000   95.912122     -925.2273       0             -768.53385     -2.0382232    
SHAKE stats (type/ave/delta/count) on step 9640000
Bond:   1   1         1.14287e-06     4000
Angle:  1   109.47    0.000111329     2000
   9640000   96.35498      -930.78464      0             -773.36768     -8.5162412    
SHAKE stats (type/ave/delta/count) on step 9650000
Bond:   1   1         1.20022e-06     4000
Angle:  1   109.47    0.000100356     2000
   9650000   94.484489     -932.71361      0             -778.35251     -7.1199397    
SHAKE stats (type/ave/delta/count) on step 9660000
Bond:   1   1         1.25922e-06     4000
Angle:  1   109.47    0.000100241     2000
   9660000   94.249337     -924.28161      0             -770.30468     -9.2835546    
SHAKE stats (type/ave/delta/count) on step 9670000
Bond:   1   1         1.43747e-06     4000
Angle:  1   109.47    9.85207e-05     2000
   9670000   94.763667     -925.49813      0             -770.68093     -14.339131    
SHAKE stats (type/ave/delta/count) on step 9680000
Bond:   1   1         1.33833e-06     4000
Angle:  1   109.47    0.000100603     2000
   9680000   94.647309     -926.5298       0             -771.9027      -7.6067813    
SHAKE stats (type/ave/delta/count) on step 9690000
Bond:   1   1         1.31256e-06     4000
Angle:  1   109.47    0.000110364     2000
   9690000   94.77707      -934.60932      0             -779.77022     -8.7489985    
SHAKE stats (type/ave/delta/count) on step 9700000
Bond:   1   1         1.11458e-06     4000
Angle:  1   109.47    9.93594e-05     2000
   9700000   95.676151     -934.62608      0             -778.31814     -10.021016    
SHAKE stats (type/ave/delta/count) on step 9710000
Bond:   1   1         1.25772e-06     4000
Angle:  1   109.47    9.49306e-05     2000
   9710000   93.035437     -927.66614      0             -775.67238     -5.2635595    
SHAKE stats (type/ave/delta/count) on step 9720000
Bond:   1   1         1.00603e-06     4000
Angle:  1   109.47    9.24276e-05     2000
   9720000   95.663249     -930.60222      0             -774.31536     -14.429327    
SHAKE stats (type/ave/delta/count) on step 9730000
Bond:   1   1         1.02914e-06     4000
Angle:  1   109.47    9.90291e-05     2000
   9730000   93.157532     -928.56966      0             -776.37643     -2.4832796    
SHAKE stats (type/ave/delta/count) on step 9740000
Bond:   1   1         1.25168e-06     4000
Angle:  1   109.47    9.25363e-05     2000
   9740000   93.419656     -929.37134      0             -776.74988     -6.0818862    
SHAKE stats (type/ave/delta/count) on step 9750000
Bond:   1   1         1.63069e-06     4000
Angle:  1   109.47    0.00012133      2000
   9750000   94.078771     -929.04402      0             -775.34574      0.26051516   
SHAKE stats (type/ave/delta/count) on step 9760000
Bond:   1   1         1.17302e-06     4000
Angle:  1   109.47    0.000108153     2000
   9760000   94.112688     -934.18319      0             -780.42951     -9.8685189    
SHAKE stats (type/ave/delta/count) on step 9770000
Bond:   1   1         1.28633e-06     4000
Angle:  1   109.47    0.000104667     2000
   9770000   96.045442     -927.07328      0             -770.16201     -5.963509     
SHAKE stats (type/ave/delta/count) on step 9780000
Bond:   1   1         1.63215e-06     4000
Angle:  1   109.47    0.000118348     2000
   9780000   93.45908      -924.84634      0             -772.16047     -7.2805273    
SHAKE stats (type/ave/delta/count) on step 9790000
Bond:   1   1         1.12803e-06     4000
Angle:  1   109.47    9.20536e-05     2000
   9790000   95.611644     -922.52226      0             -766.3197      -10.685762    
SHAKE stats (type/ave/delta/count) on step 9800000
Bond:   1   1         1.33758e-06     4000
Angle:  1   109.47    0.000106665     2000
   9800000   94.917689     -930.65408      0             -775.58525     -6.4193758    
SHAKE stats (type/ave/delta/count) on step 9810000
Bond:   1   1         1.11551e-06     4000
Angle:  1   109.47    9.94752e-05     2000
   9810000   95.199515     -930.66427      0             -775.13502      3.5048879    
SHAKE stats (type/ave/delta/count) on step 9820000
Bond:   1   1         1.15948e-06     4000
Angle:  1   109.47    9.60498e-05     2000
   9820000   94.288325     -933.59929      0             -779.55867     -7.0652731    
SHAKE stats (type/ave/delta/count) on step 9830000
Bond:   1   1         1.48292e-06     4000
Angle:  1   109.47    0.000102193     2000
   9830000   94.998421     -928.29151      0             -773.09079     -8.2366505    
SHAKE stats (type/ave/delta/count) on step 9840000
Bond:   1   1         1.39504e-06     4000
Angle:  1   109.47    0.000102227     2000
   9840000   95.437686     -926.51419      0             -770.59583     -4.3558063    
SHAKE stats (type/ave/delta/count) on step 9850000
Bond:   1   1         1.12381e-06     4000
Angle:  1   109.47    9.45297e-05     2000
   9850000   97.924751     -923.12535      0             -763.14382     -8.8786789    
SHAKE stats (type/ave/delta/count) on step 9860000
Bond:   1   1         1.2818e-06      4000
Angle:  1   109.47    0.000113215     2000
   9860000   95.963582     -928.44406      0             -771.66654     -5.4869363    
SHAKE stats (type/ave/delta/count) on step 9870000
Bond:   1   1         1.30779e-06     4000
Angle:  1   109.47    8.95765e-05     2000
   9870000   96.439314     -928.39783      0             -770.84309     -12.752077    
SHAKE stats (type/ave/delta/count) on step 9880000
Bond:   1   1         1.17925e-06     4000
Angle:  1   109.47    9.56745e-05     2000
   9880000   94.929793     -932.47585      0             -777.38725     -5.1712194    
SHAKE stats (type/ave/delta/count) on step 9890000
Bond:   1   1         1.90498e-06     4000
Angle:  1   109.47    0.000149459     2000
   9890000   93.795109     -933.85745      0             -780.6226      -4.9183054    
SHAKE stats (type/ave/delta/count) on step 9900000
Bond:   1   1         1.21598e-06     4000
Angle:  1   109.47    0.000104107     2000
   9900000   96.498358     -931.38367      0             -773.73248     -6.3905426    
SHAKE stats (type/ave/delta/count) on step 9910000
Bond:   1   1         1.01282e-06     4000
Angle:  1   109.47    0.00010295      2000
   9910000   93.61857      -932.98386      0             -780.03742     -9.8645492    
SHAKE stats (type/ave/delta/count) on step 9920000
Bond:   1   1         1.58785e-06     4000
Angle:  1   109.47    0.000109136     2000
   9920000   92.950524     -929.80199      0             -777.94696     -6.240802     
SHAKE stats (type/ave/delta/count) on step 9930000
Bond:   1   1         1.12326e-06     4000
Angle:  1   109.47    9.40682e-05     2000
   9930000   96.157874     -933.67314      0             -776.5782      -6.9386831    
SHAKE stats (type/ave/delta/count) on step 9940000
Bond:   1   1         1.22605e-06     4000
Angle:  1   109.47    9.5968e-05      2000
   9940000   94.146184     -927.64062      0             -773.83222     -14.725349    
SHAKE stats (type/ave/delta/count) on step 9950000
Bond:   1   1         1.36848e-06     4000
Angle:  1   109.47    9.41163e-05     2000
   9950000   95.540047     -928.48795      0             -772.40236     -0.80951669   
SHAKE stats (type/ave/delta/count) on step 9960000
Bond:   1   1         1.36455e-06     4000
Angle:  1   109.47    0.000105505     2000
   9960000   94.029466     -924.18377      0             -770.56605     -0.36030386   
SHAKE stats (type/ave/delta/count) on step 9970000
Bond:   1   1         1.2968e-06      4000
Angle:  1   109.47    8.75234e-05     2000
   9970000   95.407505     -928.0341       0             -772.16504     -9.4089625    
SHAKE stats (type/ave/delta/count) on step 9980000
Bond:   1   1         1.4422e-06      4000
Angle:  1   109.47    0.000126091     2000
   9980000   95.127766     -928.50301      0             -773.09098     -9.980599     
SHAKE stats (type/ave/delta/count) on step 9990000
Bond:   1   1         1.24897e-06     4000
Angle:  1   109.47    0.000111496     2000
   9990000   93.993027     -924.34412      0             -770.78593     -3.0665559    
SHAKE stats (type/ave/delta/count) on step 10000000
Bond:   1   1         1.22246e-06     4000
Angle:  1   109.47    0.000101444     2000
  10000000   96.916752     -924.61472      0             -766.27999     -14.530685    
Loop time of 12070 on 640 procs for 2000000 steps with 14640 atoms

Performance: 14.316 ns/day, 1.676 hours/ns, 165.700 timesteps/s, 2.426 Matom-step/s
100.0% CPU use with 640 MPI tasks x 1 OpenMP threads

MPI task timing breakdown:
Section |  min time  |  avg time  |  max time  |%varavg| %total
---------------------------------------------------------------
Pair    | 0.17641    | 100.63     | 3576.8     |3932.2 |  0.83
Bond    | 0.15835    | 0.29595    | 0.57412    |  16.1 |  0.00
Kspace  | 7145.6     | 10536      | 10733      | 382.4 | 87.29
Neigh   | 418.37     | 437.88     | 443.65     |  30.1 |  3.63
Comm    | 6.9773     | 89.159     | 540.94     |1325.8 |  0.74
Output  | 14.621     | 127.06     | 189.02     | 336.2 |  1.05
Modify  | 294.22     | 678.1      | 820.05     | 398.5 |  5.62
Other   |            | 100.5      |            |       |  0.83

Nlocal:         22.875 ave         610 max           0 min
Histogram: 554 63 9 2 0 0 5 1 2 4
Nghost:        225.353 ave        3143 max           0 min
Histogram: 462 108 27 13 10 11 5 0 1 3
Neighs:        3143.21 ave      161313 max           0 min
Histogram: 620 8 0 1 4 1 0 2 1 3

Total # of neighbors = 2011654
Ave neighs/atom = 137.40806
Ave special neighs/atom = 0.81967213
Neighbor list builds = 100210
Dangerous builds = 0
undump DUMP4
write_restart nvt_prod.restart.*
System init for write_restart ...
PPPM initialization ...
  using 12-bit tables for long-range coulomb (src/kspace.cpp:342)
  G vector (1/distance) = 0.28515695
  grid = 80 80 80
  stencil order = 5
  estimated absolute RMS force accuracy = 0.00017907316
  estimated relative force accuracy = 1.2435943e-05
  using double precision KISS FFT
  3d grid and FFT values/proc = 4335 960
Generated 0 of 3 mixed pair_coeff terms from geometric mixing rule
write_data nvt_prod_final.lammps-data pair ij
System init for write_data ...
PPPM initialization ...
  using 12-bit tables for long-range coulomb (src/kspace.cpp:342)
  G vector (1/distance) = 0.28515695
  grid = 80 80 80
  stencil order = 5
  estimated absolute RMS force accuracy = 0.00017907316
  estimated relative force accuracy = 1.2435943e-05
  using double precision KISS FFT
  3d grid and FFT values/proc = 4335 960
Generated 0 of 3 mixed pair_coeff terms from geometric mixing rule

Total wall time: 16:47:47
