LAMMPS data file via write_data, version 4 Feb 2025, timestep = 10000000, units = metal

14640 atoms
3 atom types
4000 bonds
1 bond types
2000 angles
1 angle types

0 154.00799999999998 xlo xhi
0 148.19426709559315 ylo yhi
0 151.07316997686289 zlo zhi

Masses

1 12.01099999691024
2 1.007999999740698
3 15.99899999588435

PairIJ Coeffs # lj/cut/coul/long

1 1 0 1 9
1 2 0 1 9
1 3 0.004551 3.367 9
2 2 0 1 9
2 3 0 1 9
3 3 0.006735 3.166 9

Bond Coeffs # zero

1 1

Angle Coeffs # zero

1 109.47

Atoms # full

1 0 1 0 0 0 0 0 0 0
2 0 1 0 1.426 0 0 0 0 0
5 0 1 0 0 2.4699044515932185 0 0 0 0
6 0 1 0 1.426 2.4699044515932185 0 0 0 0
7 0 1 0 2.139 1.2349522257966092 0 0 0 0
8 0 1 0 3.5649999999999995 1.2349522257966092 0 0 0 0
9 0 1 0 0 4.939808903186437 0 0 0 0
10 0 1 0 1.426 4.939808903186437 0 0 0 0
11 0 1 0 2.139 3.7048566773898277 0 0 0 0
12 0 1 0 3.5649999999999995 3.7048566773898277 0 0 0 0
15 0 1 0 2.139 6.174761128983047 0 0 0 0
16 0 1 0 3.5649999999999995 6.174761128983047 0 0 0 0
241 0 1 0 4.278 0 0 0 0 0
242 0 1 0 5.704 0 0 0 0 0
245 0 1 0 4.278 2.4699044515932185 0 0 0 0
246 0 1 0 5.704 2.4699044515932185 0 0 0 0
247 0 1 0 6.417 1.2349522257966092 0 0 0 0
249 0 1 0 4.278 4.939808903186437 0 0 0 0
250 0 1 0 5.704 4.939808903186437 0 0 0 0
251 0 1 0 6.417 3.7048566773898277 0 0 0 0
255 0 1 0 6.417 6.174761128983047 0 0 0 0
248 0 1 0 7.843 1.2349522257966092 0 0 0 0
252 0 1 0 7.843 3.7048566773898277 0 0 0 0
256 0 1 0 7.843 6.174761128983047 0 0 0 0
481 0 1 0 8.556 0 0 0 0 0
482 0 1 0 9.982000000000001 0 0 0 0 0
485 0 1 0 8.556 2.4699044515932185 0 0 0 0
486 0 1 0 9.982000000000001 2.4699044515932185 0 0 0 0
487 0 1 0 10.694999999999999 1.2349522257966092 0 0 0 0
488 0 1 0 12.120999999999999 1.2349522257966092 0 0 0 0
489 0 1 0 8.556 4.939808903186437 0 0 0 0
490 0 1 0 9.982000000000001 4.939808903186437 0 0 0 0
491 0 1 0 10.694999999999999 3.7048566773898277 0 0 0 0
492 0 1 0 12.120999999999999 3.7048566773898277 0 0 0 0
495 0 1 0 10.694999999999999 6.174761128983047 0 0 0 0
496 0 1 0 12.120999999999999 6.174761128983047 0 0 0 0
721 0 1 0 12.834 0 0 0 0 0
722 0 1 0 14.26 0 0 0 0 0
725 0 1 0 12.834 2.4699044515932185 0 0 0 0
726 0 1 0 14.26 2.4699044515932185 0 0 0 0
727 0 1 0 14.972999999999999 1.2349522257966092 0 0 0 0
729 0 1 0 12.834 4.939808903186437 0 0 0 0
730 0 1 0 14.26 4.939808903186437 0 0 0 0
731 0 1 0 14.972999999999999 3.7048566773898277 0 0 0 0
735 0 1 0 14.972999999999999 6.174761128983047 0 0 0 0
13 0 1 0 0 7.409713354779655 0 0 0 0
14 0 1 0 1.426 7.409713354779655 0 0 0 0
17 0 1 0 0 9.879617806372874 0 0 0 0
18 0 1 0 1.426 9.879617806372874 0 0 0 0
19 0 1 0 2.139 8.644665580576266 0 0 0 0
20 0 1 0 3.5649999999999995 8.644665580576266 0 0 0 0
23 0 1 0 2.139 11.114570032169485 0 0 0 0
24 0 1 0 3.5649999999999995 11.114570032169485 0 0 0 0
253 0 1 0 4.278 7.409713354779655 0 0 0 0
254 0 1 0 5.704 7.409713354779655 0 0 0 0
257 0 1 0 4.278 9.879617806372874 0 0 0 0
258 0 1 0 5.704 9.879617806372874 0 0 0 0
259 0 1 0 6.417 8.644665580576266 0 0 0 0
263 0 1 0 6.417 11.114570032169485 0 0 0 0
260 0 1 0 7.843 8.644665580576266 0 0 0 0
264 0 1 0 7.843 11.114570032169485 0 0 0 0
493 0 1 0 8.556 7.409713354779655 0 0 0 0
494 0 1 0 9.982000000000001 7.409713354779655 0 0 0 0
497 0 1 0 8.556 9.879617806372874 0 0 0 0
498 0 1 0 9.982000000000001 9.879617806372874 0 0 0 0
499 0 1 0 10.694999999999999 8.644665580576266 0 0 0 0
500 0 1 0 12.120999999999999 8.644665580576266 0 0 0 0
503 0 1 0 10.694999999999999 11.114570032169485 0 0 0 0
504 0 1 0 12.120999999999999 11.114570032169485 0 0 0 0
733 0 1 0 12.834 7.409713354779655 0 0 0 0
734 0 1 0 14.26 7.409713354779655 0 0 0 0
737 0 1 0 12.834 9.879617806372874 0 0 0 0
738 0 1 0 14.26 9.879617806372874 0 0 0 0
739 0 1 0 14.972999999999999 8.644665580576266 0 0 0 0
743 0 1 0 14.972999999999999 11.114570032169485 0 0 0 0
21 0 1 0 0 12.349522257966095 0 0 0 0
22 0 1 0 1.426 12.349522257966095 0 0 0 0
25 0 1 0 0 14.81942670955931 0 0 0 0
26 0 1 0 1.426 14.81942670955931 0 0 0 0
27 0 1 0 2.139 13.584474483762703 0 0 0 0
28 0 1 0 3.5649999999999995 13.584474483762703 0 0 0 0
29 0 1 0 0 17.289331161152532 0 0 0 0
30 0 1 0 1.426 17.289331161152532 0 0 0 0
31 0 1 0 2.139 16.054378935355924 0 0 0 0
32 0 1 0 3.5649999999999995 16.054378935355924 0 0 0 0
261 0 1 0 4.278 12.349522257966095 0 0 0 0
262 0 1 0 5.704 12.349522257966095 0 0 0 0
265 0 1 0 4.278 14.81942670955931 0 0 0 0
266 0 1 0 5.704 14.81942670955931 0 0 0 0
267 0 1 0 6.417 13.584474483762703 0 0 0 0
269 0 1 0 4.278 17.289331161152532 0 0 0 0
270 0 1 0 5.704 17.289331161152532 0 0 0 0
271 0 1 0 6.417 16.054378935355924 0 0 0 0
511 0 1 0 10.694999999999999 16.054378935355924 0 0 0 0
509 0 1 0 8.556 17.289331161152532 0 0 0 0
747 0 1 0 14.972999999999999 13.584474483762703 0 0 0 0
746 0 1 0 14.26 14.81942670955931 0 0 0 0
272 0 1 0 7.843 16.054378935355924 0 0 0 0
741 0 1 0 12.834 12.349522257966095 0 0 0 0
512 0 1 0 12.120999999999999 16.054378935355924 0 0 0 0
502 0 1 0 9.982000000000001 12.349522257966095 0 0 0 0
742 0 1 0 14.26 12.349522257966095 0 0 0 0
751 0 1 0 14.972999999999999 16.054378935355924 0 0 0 0
745 0 1 0 12.834 14.81942670955931 0 0 0 0
508 0 1 0 12.120999999999999 13.584474483762703 0 0 0 0
750 0 1 0 14.26 17.289331161152532 0 0 0 0
510 0 1 0 9.982000000000001 17.289331161152532 0 0 0 0
505 0 1 0 8.556 14.81942670955931 0 0 0 0
507 0 1 0 10.694999999999999 13.584474483762703 0 0 0 0
268 0 1 0 7.843 13.584474483762703 0 0 0 0
749 0 1 0 12.834 17.289331161152532 0 0 0 0
501 0 1 0 8.556 12.349522257966095 0 0 0 0
506 0 1 0 9.982000000000001 14.81942670955931 0 0 0 0
33 0 1 0 0 19.759235612745748 0 0 0 0
34 0 1 0 1.426 19.759235612745748 0 0 0 0
35 0 1 0 2.139 18.524283386949143 0 0 0 0
36 0 1 0 3.5649999999999995 18.524283386949143 0 0 0 0
37 0 1 0 0 22.22914006433897 0 0 0 0
38 0 1 0 1.426 22.22914006433897 0 0 0 0
39 0 1 0 2.139 20.994187838542363 0 0 0 0
40 0 1 0 3.5649999999999995 20.994187838542363 0 0 0 0
41 0 1 0 0 24.69904451593219 0 0 0 0
42 0 1 0 1.426 24.69904451593219 0 0 0 0
43 0 1 0 2.139 23.464092290135582 0 0 0 0
44 0 1 0 3.5649999999999995 23.464092290135582 0 0 0 0
273 0 1 0 4.278 19.759235612745748 0 0 0 0
274 0 1 0 5.704 19.759235612745748 0 0 0 0
275 0 1 0 6.417 18.524283386949143 0 0 0 0
277 0 1 0 4.278 22.22914006433897 0 0 0 0
278 0 1 0 5.704 22.22914006433897 0 0 0 0
279 0 1 0 6.417 20.994187838542363 0 0 0 0
281 0 1 0 4.278 24.69904451593219 0 0 0 0
282 0 1 0 5.704 24.69904451593219 0 0 0 0
283 0 1 0 6.417 23.464092290135582 0 0 0 0
276 0 1 0 7.843 18.524283386949143 0 0 0 0
280 0 1 0 7.843 20.994187838542363 0 0 0 0
284 0 1 0 7.843 23.464092290135582 0 0 0 0
513 0 1 0 8.556 19.759235612745748 0 0 0 0
514 0 1 0 9.982000000000001 19.759235612745748 0 0 0 0
515 0 1 0 10.694999999999999 18.524283386949143 0 0 0 0
516 0 1 0 12.120999999999999 18.524283386949143 0 0 0 0
517 0 1 0 8.556 22.22914006433897 0 0 0 0
518 0 1 0 9.982000000000001 22.22914006433897 0 0 0 0
519 0 1 0 10.694999999999999 20.994187838542363 0 0 0 0
520 0 1 0 12.120999999999999 20.994187838542363 0 0 0 0
521 0 1 0 8.556 24.69904451593219 0 0 0 0
522 0 1 0 9.982000000000001 24.69904451593219 0 0 0 0
523 0 1 0 10.694999999999999 23.464092290135582 0 0 0 0
524 0 1 0 12.120999999999999 23.464092290135582 0 0 0 0
753 0 1 0 12.834 19.759235612745748 0 0 0 0
754 0 1 0 14.26 19.759235612745748 0 0 0 0
755 0 1 0 14.972999999999999 18.524283386949143 0 0 0 0
757 0 1 0 12.834 22.22914006433897 0 0 0 0
758 0 1 0 14.26 22.22914006433897 0 0 0 0
759 0 1 0 14.972999999999999 20.994187838542363 0 0 0 0
761 0 1 0 12.834 24.69904451593219 0 0 0 0
762 0 1 0 14.26 24.69904451593219 0 0 0 0
763 0 1 0 14.972999999999999 23.464092290135582 0 0 0 0
45 0 1 0 0 27.16894896752541 0 0 0 0
46 0 1 0 1.426 27.16894896752541 0 0 0 0
47 0 1 0 2.139 25.933996741728798 0 0 0 0
48 0 1 0 3.5649999999999995 25.933996741728798 0 0 0 0
49 0 1 0 0 29.63885341911862 0 0 0 0
50 0 1 0 1.426 29.63885341911862 0 0 0 0
51 0 1 0 2.139 28.403901193322017 0 0 0 0
52 0 1 0 3.5649999999999995 28.403901193322017 0 0 0 0
285 0 1 0 4.278 27.16894896752541 0 0 0 0
286 0 1 0 5.704 27.16894896752541 0 0 0 0
287 0 1 0 6.417 25.933996741728798 0 0 0 0
289 0 1 0 4.278 29.63885341911862 0 0 0 0
290 0 1 0 5.704 29.63885341911862 0 0 0 0
291 0 1 0 6.417 28.403901193322017 0 0 0 0
288 0 1 0 7.843 25.933996741728798 0 0 0 0
292 0 1 0 7.843 28.403901193322017 0 0 0 0
525 0 1 0 8.556 27.16894896752541 0 0 0 0
526 0 1 0 9.982000000000001 27.16894896752541 0 0 0 0
527 0 1 0 10.694999999999999 25.933996741728798 0 0 0 0
528 0 1 0 12.120999999999999 25.933996741728798 0 0 0 0
529 0 1 0 8.556 29.63885341911862 0 0 0 0
530 0 1 0 9.982000000000001 29.63885341911862 0 0 0 0
531 0 1 0 10.694999999999999 28.403901193322017 0 0 0 0
532 0 1 0 12.120999999999999 28.403901193322017 0 0 0 0
765 0 1 0 12.834 27.16894896752541 0 0 0 0
766 0 1 0 14.26 27.16894896752541 0 0 0 0
767 0 1 0 14.972999999999999 25.933996741728798 0 0 0 0
769 0 1 0 12.834 29.63885341911862 0 0 0 0
770 0 1 0 14.26 29.63885341911862 0 0 0 0
771 0 1 0 14.972999999999999 28.403901193322017 0 0 0 0
53 0 1 0 0 32.10875787071185 0 0 0 0
54 0 1 0 1.426 32.10875787071185 0 0 0 0
55 0 1 0 2.139 30.87380564491524 0 0 0 0
56 0 1 0 3.5649999999999995 30.87380564491524 0 0 0 0
57 0 1 0 0 34.578662322305064 0 0 0 0
58 0 1 0 1.426 34.578662322305064 0 0 0 0
59 0 1 0 2.139 33.34371009650845 0 0 0 0
60 0 1 0 3.5649999999999995 33.34371009650845 0 0 0 0
63 0 1 0 2.139 35.813614548101675 0 0 0 0
64 0 1 0 3.5649999999999995 35.813614548101675 0 0 0 0
293 0 1 0 4.278 32.10875787071185 0 0 0 0
294 0 1 0 5.704 32.10875787071185 0 0 0 0
295 0 1 0 6.417 30.87380564491524 0 0 0 0
297 0 1 0 4.278 34.578662322305064 0 0 0 0
298 0 1 0 5.704 34.578662322305064 0 0 0 0
299 0 1 0 6.417 33.34371009650845 0 0 0 0
303 0 1 0 6.417 35.813614548101675 0 0 0 0
773 0 1 0 12.834 32.10875787071185 0 0 0 0
300 0 1 0 7.843 33.34371009650845 0 0 0 0
778 0 1 0 14.26 34.578662322305064 0 0 0 0
538 0 1 0 9.982000000000001 34.578662322305064 0 0 0 0
296 0 1 0 7.843 30.87380564491524 0 0 0 0
539 0 1 0 10.694999999999999 33.34371009650845 0 0 0 0
777 0 1 0 12.834 34.578662322305064 0 0 0 0
544 0 1 0 12.120999999999999 35.813614548101675 0 0 0 0
540 0 1 0 12.120999999999999 33.34371009650845 0 0 0 0
537 0 1 0 8.556 34.578662322305064 0 0 0 0
783 0 1 0 14.972999999999999 35.813614548101675 0 0 0 0
533 0 1 0 8.556 32.10875787071185 0 0 0 0
535 0 1 0 10.694999999999999 30.87380564491524 0 0 0 0
304 0 1 0 7.843 35.813614548101675 0 0 0 0
543 0 1 0 10.694999999999999 35.813614548101675 0 0 0 0
536 0 1 0 12.120999999999999 30.87380564491524 0 0 0 0
774 0 1 0 14.26 32.10875787071185 0 0 0 0
775 0 1 0 14.972999999999999 30.87380564491524 0 0 0 0
534 0 1 0 9.982000000000001 32.10875787071185 0 0 0 0
779 0 1 0 14.972999999999999 33.34371009650845 0 0 0 0
61 0 1 0 0 37.04856677389829 0 0 0 0
62 0 1 0 1.426 37.04856677389829 0 0 0 0
65 0 1 0 0 39.518471225491496 0 0 0 0
66 0 1 0 1.426 39.518471225491496 0 0 0 0
67 0 1 0 2.139 38.28351899969489 0 0 0 0
68 0 1 0 3.5649999999999995 38.28351899969489 0 0 0 0
69 0 1 0 0 41.98837567708472 0 0 0 0
70 0 1 0 1.426 41.98837567708472 0 0 0 0
71 0 1 0 2.139 40.7534234512881 0 0 0 0
72 0 1 0 3.5649999999999995 40.7534234512881 0 0 0 0
75 0 1 0 2.139 43.22332790288133 0 0 0 0
76 0 1 0 3.5649999999999995 43.22332790288133 0 0 0 0
301 0 1 0 4.278 37.04856677389829 0 0 0 0
302 0 1 0 5.704 37.04856677389829 0 0 0 0
305 0 1 0 4.278 39.518471225491496 0 0 0 0
306 0 1 0 5.704 39.518471225491496 0 0 0 0
307 0 1 0 6.417 38.28351899969489 0 0 0 0
309 0 1 0 4.278 41.98837567708472 0 0 0 0
310 0 1 0 5.704 41.98837567708472 0 0 0 0
311 0 1 0 6.417 40.7534234512881 0 0 0 0
315 0 1 0 6.417 43.22332790288133 0 0 0 0
9896 0 2 0.4238 0.8793320564134036 50.43214334865683 9.178548652241599 1 3 0
308 0 1 0 7.843 38.28351899969489 0 0 0 0
312 0 1 0 7.843 40.7534234512881 0 0 0 0
316 0 1 0 7.843 43.22332790288133 0 0 0 0
541 0 1 0 8.556 37.04856677389829 0 0 0 0
542 0 1 0 9.982000000000001 37.04856677389829 0 0 0 0
545 0 1 0 8.556 39.518471225491496 0 0 0 0
546 0 1 0 9.982000000000001 39.518471225491496 0 0 0 0
547 0 1 0 10.694999999999999 38.28351899969489 0 0 0 0
548 0 1 0 12.120999999999999 38.28351899969489 0 0 0 0
549 0 1 0 8.556 41.98837567708472 0 0 0 0
550 0 1 0 9.982000000000001 41.98837567708472 0 0 0 0
551 0 1 0 10.694999999999999 40.7534234512881 0 0 0 0
552 0 1 0 12.120999999999999 40.7534234512881 0 0 0 0
555 0 1 0 10.694999999999999 43.22332790288133 0 0 0 0
556 0 1 0 12.120999999999999 43.22332790288133 0 0 0 0
781 0 1 0 12.834 37.04856677389829 0 0 0 0
782 0 1 0 14.26 37.04856677389829 0 0 0 0
785 0 1 0 12.834 39.518471225491496 0 0 0 0
786 0 1 0 14.26 39.518471225491496 0 0 0 0
787 0 1 0 14.972999999999999 38.28351899969489 0 0 0 0
789 0 1 0 12.834 41.98837567708472 0 0 0 0
790 0 1 0 14.26 41.98837567708472 0 0 0 0
791 0 1 0 14.972999999999999 40.7534234512881 0 0 0 0
795 0 1 0 14.972999999999999 43.22332790288133 0 0 0 0
73 0 1 0 0 44.45828012867794 0 0 0 0
74 0 1 0 1.426 44.45828012867794 0 0 0 0
77 0 1 0 0 46.92818458027115 0 0 0 0
78 0 1 0 1.426 46.92818458027115 0 0 0 0
79 0 1 0 2.139 45.693232354474546 0 0 0 0
80 0 1 0 3.5649999999999995 45.693232354474546 0 0 0 0
81 0 1 0 0 49.39808903186438 0 0 0 0
82 0 1 0 1.426 49.39808903186438 0 0 0 0
83 0 1 0 2.139 48.16313680606777 0 0 0 0
84 0 1 0 3.5649999999999995 48.16313680606777 0 0 0 0
313 0 1 0 4.278 44.45828012867794 0 0 0 0
314 0 1 0 5.704 44.45828012867794 0 0 0 0
317 0 1 0 4.278 46.92818458027115 0 0 0 0
318 0 1 0 5.704 46.92818458027115 0 0 0 0
319 0 1 0 6.417 45.693232354474546 0 0 0 0
321 0 1 0 4.278 49.39808903186438 0 0 0 0
322 0 1 0 5.704 49.39808903186438 0 0 0 0
323 0 1 0 6.417 48.16313680606777 0 0 0 0
10301 0 2 0.4238 1.4601236437807634 53.64310062995114 6.822713290835161 1 3 0
9111 0 2 0.4238 0.9043349420204686 46.10289389122489 5.582079448375877 1 3 0
11642 0 2 0.4238 0.49739679303196954 52.133778134955705 4.433766972839953 1 3 0
12876 0 3 -0.8476 0.9063779672528279 46.609151215694396 4.719699252387744 1 3 0
11238 0 2 0.4238 0.7230281985954905 49.90109496306737 6.735651803787238 1 3 0
11473 0 2 0.4238 0.41344684655836067 48.24063024457837 5.282650776815769 1 3 0
11641 0 2 0.4238 0.9295124355728748 51.19926853290183 3.1662518801142627 1 3 0
13471 0 3 -0.8476 1.0382376739577466 52.827484443741426 6.426755445620039 1 3 0
320 0 1 0 7.843 45.693232354474546 0 0 0 0
324 0 1 0 7.843 48.16313680606777 0 0 0 0
553 0 1 0 8.556 44.45828012867794 0 0 0 0
554 0 1 0 9.982000000000001 44.45828012867794 0 0 0 0
557 0 1 0 8.556 46.92818458027115 0 0 0 0
558 0 1 0 9.982000000000001 46.92818458027115 0 0 0 0
559 0 1 0 10.694999999999999 45.693232354474546 0 0 0 0
560 0 1 0 12.120999999999999 45.693232354474546 0 0 0 0
561 0 1 0 8.556 49.39808903186438 0 0 0 0
562 0 1 0 9.982000000000001 49.39808903186438 0 0 0 0
563 0 1 0 10.694999999999999 48.16313680606777 0 0 0 0
564 0 1 0 12.120999999999999 48.16313680606777 0 0 0 0
793 0 1 0 12.834 44.45828012867794 0 0 0 0
794 0 1 0 14.26 44.45828012867794 0 0 0 0
797 0 1 0 12.834 46.92818458027115 0 0 0 0
798 0 1 0 14.26 46.92818458027115 0 0 0 0
799 0 1 0 14.972999999999999 45.693232354474546 0 0 0 0
801 0 1 0 12.834 49.39808903186438 0 0 0 0
802 0 1 0 14.26 49.39808903186438 0 0 0 0
803 0 1 0 14.972999999999999 48.16313680606777 0 0 0 0
85 0 1 0 0 51.86799348345759 0 0 0 0
86 0 1 0 1.426 51.86799348345759 0 0 0 0
87 0 1 0 2.139 50.633041257660985 0 0 0 0
88 0 1 0 3.5649999999999995 50.633041257660985 0 0 0 0
89 0 1 0 0 54.33789793505082 0 0 0 0
90 0 1 0 1.426 54.33789793505082 0 0 0 0
91 0 1 0 2.139 53.1029457092542 0 0 0 0
92 0 1 0 3.5649999999999995 53.1029457092542 0 0 0 0
95 0 1 0 2.139 55.57285016084742 0 0 0 0
96 0 1 0 3.5649999999999995 55.57285016084742 0 0 0 0
325 0 1 0 4.278 51.86799348345759 0 0 0 0
326 0 1 0 5.704 51.86799348345759 0 0 0 0
327 0 1 0 6.417 50.633041257660985 0 0 0 0
329 0 1 0 4.278 54.33789793505082 0 0 0 0
330 0 1 0 5.704 54.33789793505082 0 0 0 0
331 0 1 0 6.417 53.1029457092542 0 0 0 0
335 0 1 0 6.417 55.57285016084742 0 0 0 0
9254 0 2 0.4238 0.07519517546235793 37.65760445757486 6.003275097608706 1 3 0
332 0 1 0 7.843 53.1029457092542 0 0 0 0
810 0 1 0 14.26 54.33789793505082 0 0 0 0
571 0 1 0 10.694999999999999 53.1029457092542 0 0 0 0
566 0 1 0 9.982000000000001 51.86799348345759 0 0 0 0
806 0 1 0 14.26 51.86799348345759 0 0 0 0
570 0 1 0 9.982000000000001 54.33789793505082 0 0 0 0
576 0 1 0 12.120999999999999 55.57285016084742 0 0 0 0
569 0 1 0 8.556 54.33789793505082 0 0 0 0
811 0 1 0 14.972999999999999 53.1029457092542 0 0 0 0
805 0 1 0 12.834 51.86799348345759 0 0 0 0
575 0 1 0 10.694999999999999 55.57285016084742 0 0 0 0
568 0 1 0 12.120999999999999 50.633041257660985 0 0 0 0
572 0 1 0 12.120999999999999 53.1029457092542 0 0 0 0
815 0 1 0 14.972999999999999 55.57285016084742 0 0 0 0
567 0 1 0 10.694999999999999 50.633041257660985 0 0 0 0
809 0 1 0 12.834 54.33789793505082 0 0 0 0
565 0 1 0 8.556 51.86799348345759 0 0 0 0
328 0 1 0 7.843 50.633041257660985 0 0 0 0
336 0 1 0 7.843 55.57285016084742 0 0 0 0
807 0 1 0 14.972999999999999 50.633041257660985 0 0 0 0
13268 0 3 -0.8476 0.6594414814681301 49.90340806275908 9.998357912518559 1 3 0
9895 0 2 0.4238 1.470881165246461 49.835604333949156 10.578847723273903 1 3 0
14141 0 3 -0.8476 0.25232919846606494 51.85187222518932 3.506151037909605 1 3 0
9112 0 2 0.4238 0.16112560004780735 46.2814028333176 4.1390267399326985 1 3 0
11237 0 2 0.4238 1.3321387264772757 51.35667528948156 7.156242863357588 1 3 0
13939 0 3 -0.8476 1.1095643943683855 50.438838764510955 7.4849324404663795 1 3 0
10302 0 2 0.4238 0.04471666220458159 52.88519852692797 6.524662013863252 1 3 0
10899 0 2 0.4238 0.11526587189324722 44.60839138872107 7.339949807877474 1 3 0
14057 0 3 -0.8476 0.02851282674345157 49.053044181960075 5.720611295848784 1 3 0
93 0 1 0 0 56.807802386644035 0 0 0 0
94 0 1 0 1.426 56.807802386644035 0 0 0 0
97 0 1 0 0 59.27770683823724 0 0 0 0
98 0 1 0 1.426 59.27770683823724 0 0 0 0
99 0 1 0 2.139 58.04275461244064 0 0 0 0
100 0 1 0 3.5649999999999995 58.04275461244064 0 0 0 0
101 0 1 0 0 61.74761128983047 0 0 0 0
102 0 1 0 1.426 61.74761128983047 0 0 0 0
103 0 1 0 2.139 60.51265906403386 0 0 0 0
104 0 1 0 3.5649999999999995 60.51265906403386 0 0 0 0
333 0 1 0 4.278 56.807802386644035 0 0 0 0
334 0 1 0 5.704 56.807802386644035 0 0 0 0
337 0 1 0 4.278 59.27770683823724 0 0 0 0
338 0 1 0 5.704 59.27770683823724 0 0 0 0
339 0 1 0 6.417 58.04275461244064 0 0 0 0
341 0 1 0 4.278 61.74761128983047 0 0 0 0
342 0 1 0 5.704 61.74761128983047 0 0 0 0
343 0 1 0 6.417 60.51265906403386 0 0 0 0
12737 0 3 -0.8476 3.445954998306021 55.76595174144791 6.594902627879283 1 3 0
9902 0 2 0.4238 3.2973931278036805 56.96276179060881 4.061059510532563 1 3 0
8834 0 2 0.4238 3.1468700855054763 55.81386520532602 5.641879340361775 1 3 0
13271 0 3 -0.8476 3.076464320806695 56.01230718555747 3.842365719745187 1 3 0
9901 0 2 0.4238 2.8400506393064093 55.93951549266637 2.873443565008486 1 3 0
340 0 1 0 7.843 58.04275461244064 0 0 0 0
344 0 1 0 7.843 60.51265906403386 0 0 0 0
573 0 1 0 8.556 56.807802386644035 0 0 0 0
574 0 1 0 9.982000000000001 56.807802386644035 0 0 0 0
577 0 1 0 8.556 59.27770683823724 0 0 0 0
578 0 1 0 9.982000000000001 59.27770683823724 0 0 0 0
579 0 1 0 10.694999999999999 58.04275461244064 0 0 0 0
580 0 1 0 12.120999999999999 58.04275461244064 0 0 0 0
581 0 1 0 8.556 61.74761128983047 0 0 0 0
582 0 1 0 9.982000000000001 61.74761128983047 0 0 0 0
583 0 1 0 10.694999999999999 60.51265906403386 0 0 0 0
584 0 1 0 12.120999999999999 60.51265906403386 0 0 0 0
813 0 1 0 12.834 56.807802386644035 0 0 0 0
814 0 1 0 14.26 56.807802386644035 0 0 0 0
817 0 1 0 12.834 59.27770683823724 0 0 0 0
818 0 1 0 14.26 59.27770683823724 0 0 0 0
819 0 1 0 14.972999999999999 58.04275461244064 0 0 0 0
821 0 1 0 12.834 61.74761128983047 0 0 0 0
822 0 1 0 14.26 61.74761128983047 0 0 0 0
823 0 1 0 14.972999999999999 60.51265906403386 0 0 0 0
105 0 1 0 0 64.2175157414237 0 0 0 0
106 0 1 0 1.426 64.2175157414237 0 0 0 0
107 0 1 0 2.139 62.982563515627085 0 0 0 0
108 0 1 0 3.5649999999999995 62.982563515627085 0 0 0 0
109 0 1 0 0 66.6874201930169 0 0 0 0
110 0 1 0 1.426 66.6874201930169 0 0 0 0
111 0 1 0 2.139 65.4524679672203 0 0 0 0
112 0 1 0 3.5649999999999995 65.4524679672203 0 0 0 0
115 0 1 0 2.139 67.92237241881352 0 0 0 0
116 0 1 0 3.5649999999999995 67.92237241881352 0 0 0 0
345 0 1 0 4.278 64.2175157414237 0 0 0 0
346 0 1 0 5.704 64.2175157414237 0 0 0 0
347 0 1 0 6.417 62.982563515627085 0 0 0 0
349 0 1 0 4.278 66.6874201930169 0 0 0 0
350 0 1 0 5.704 66.6874201930169 0 0 0 0
351 0 1 0 6.417 65.4524679672203 0 0 0 0
355 0 1 0 6.417 67.92237241881352 0 0 0 0
11654 0 2 0.4238 1.894998523931883 56.07315831029068 7.335381421986134 1 3 0
348 0 1 0 7.843 62.982563515627085 0 0 0 0
352 0 1 0 7.843 65.4524679672203 0 0 0 0
356 0 1 0 7.843 67.92237241881352 0 0 0 0
585 0 1 0 8.556 64.2175157414237 0 0 0 0
586 0 1 0 9.982000000000001 64.2175157414237 0 0 0 0
587 0 1 0 10.694999999999999 62.982563515627085 0 0 0 0
588 0 1 0 12.120999999999999 62.982563515627085 0 0 0 0
589 0 1 0 8.556 66.6874201930169 0 0 0 0
590 0 1 0 9.982000000000001 66.6874201930169 0 0 0 0
591 0 1 0 10.694999999999999 65.4524679672203 0 0 0 0
592 0 1 0 12.120999999999999 65.4524679672203 0 0 0 0
595 0 1 0 10.694999999999999 67.92237241881352 0 0 0 0
596 0 1 0 12.120999999999999 67.92237241881352 0 0 0 0
825 0 1 0 12.834 64.2175157414237 0 0 0 0
826 0 1 0 14.26 64.2175157414237 0 0 0 0
827 0 1 0 14.972999999999999 62.982563515627085 0 0 0 0
829 0 1 0 12.834 66.6874201930169 0 0 0 0
830 0 1 0 14.26 66.6874201930169 0 0 0 0
831 0 1 0 14.972999999999999 65.4524679672203 0 0 0 0
835 0 1 0 14.972999999999999 67.92237241881352 0 0 0 0
113 0 1 0 0 69.15732464461013 0 0 0 0
114 0 1 0 1.426 69.15732464461013 0 0 0 0
117 0 1 0 0 71.62722909620335 0 0 0 0
118 0 1 0 1.426 71.62722909620335 0 0 0 0
119 0 1 0 2.139 70.39227687040675 0 0 0 0
120 0 1 0 3.5649999999999995 70.39227687040675 0 0 0 0
123 0 1 0 2.139 72.86218132199997 0 0 0 0
124 0 1 0 3.5649999999999995 72.86218132199997 0 0 0 0
353 0 1 0 4.278 69.15732464461013 0 0 0 0
354 0 1 0 5.704 69.15732464461013 0 0 0 0
357 0 1 0 4.278 71.62722909620335 0 0 0 0
358 0 1 0 5.704 71.62722909620335 0 0 0 0
359 0 1 0 6.417 70.39227687040675 0 0 0 0
363 0 1 0 6.417 72.86218132199997 0 0 0 0
837 0 1 0 12.834 71.62722909620335 0 0 0 0
599 0 1 0 10.694999999999999 70.39227687040675 0 0 0 0
834 0 1 0 14.26 69.15732464461013 0 0 0 0
364 0 1 0 7.843 72.86218132199997 0 0 0 0
604 0 1 0 12.120999999999999 72.86218132199997 0 0 0 0
603 0 1 0 10.694999999999999 72.86218132199997 0 0 0 0
360 0 1 0 7.843 70.39227687040675 0 0 0 0
593 0 1 0 8.556 69.15732464461013 0 0 0 0
843 0 1 0 14.972999999999999 72.86218132199997 0 0 0 0
597 0 1 0 8.556 71.62722909620335 0 0 0 0
838 0 1 0 14.26 71.62722909620335 0 0 0 0
594 0 1 0 9.982000000000001 69.15732464461013 0 0 0 0
839 0 1 0 14.972999999999999 70.39227687040675 0 0 0 0
598 0 1 0 9.982000000000001 71.62722909620335 0 0 0 0
833 0 1 0 12.834 69.15732464461013 0 0 0 0
600 0 1 0 12.120999999999999 70.39227687040675 0 0 0 0
13873 0 3 -0.8476 0.1570274937124779 60.178153058169016 4.855024356426105 1 3 0
12027 0 2 0.4238 0.20867846301614498 66.82164899671827 5.698313175701026 1 3 0
10770 0 2 0.4238 3.641130155428176 60.05715983049688 3.410382838565161 1 3 0
13705 0 3 -0.8476 3.2177488135377494 59.2779539938051 3.872537080104973 1 3 0
10769 0 2 0.4238 2.2229331884192325 59.34578985913479 3.7967721944013344 1 3 0
14147 0 3 -0.8476 0.8968163510272295 56.10610901000642 7.385858376493487 1 3 0
9129 0 2 0.4238 0.42191218153913107 55.630871207853595 4.036355117343489 1 3 0
11653 0 2 0.4238 0.5269632562839592 56.378356044455785 6.497550362702301 1 3 0
8833 0 2 0.4238 4.315433202852741 56.24944885820023 6.696087093975986 1 3 0
11383 0 2 0.4238 0.16571929269357508 55.86944115214893 9.182801590970161 1 3 0
121 0 1 0 0 74.09713354779657 0 0 0 0
122 0 1 0 1.426 74.09713354779657 0 0 0 0
125 0 1 0 0 76.56703799938978 0 0 0 0
126 0 1 0 1.426 76.56703799938978 0 0 0 0
127 0 1 0 2.139 75.33208577359318 0 0 0 0
128 0 1 0 3.5649999999999995 75.33208577359318 0 0 0 0
129 0 1 0 0 79.03694245098299 0 0 0 0
130 0 1 0 1.426 79.03694245098299 0 0 0 0
131 0 1 0 2.139 77.8019902251864 0 0 0 0
132 0 1 0 3.5649999999999995 77.8019902251864 0 0 0 0
135 0 1 0 2.139 80.27189467677961 0 0 0 0
136 0 1 0 3.5649999999999995 80.27189467677961 0 0 0 0
361 0 1 0 4.278 74.09713354779657 0 0 0 0
362 0 1 0 5.704 74.09713354779657 0 0 0 0
365 0 1 0 4.278 76.56703799938978 0 0 0 0
366 0 1 0 5.704 76.56703799938978 0 0 0 0
367 0 1 0 6.417 75.33208577359318 0 0 0 0
369 0 1 0 4.278 79.03694245098299 0 0 0 0
370 0 1 0 5.704 79.03694245098299 0 0 0 0
371 0 1 0 6.417 77.8019902251864 0 0 0 0
375 0 1 0 6.417 80.27189467677961 0 0 0 0
368 0 1 0 7.843 75.33208577359318 0 0 0 0
372 0 1 0 7.843 77.8019902251864 0 0 0 0
376 0 1 0 7.843 80.27189467677961 0 0 0 0
601 0 1 0 8.556 74.09713354779657 0 0 0 0
602 0 1 0 9.982000000000001 74.09713354779657 0 0 0 0
605 0 1 0 8.556 76.56703799938978 0 0 0 0
606 0 1 0 9.982000000000001 76.56703799938978 0 0 0 0
607 0 1 0 10.694999999999999 75.33208577359318 0 0 0 0
608 0 1 0 12.120999999999999 75.33208577359318 0 0 0 0
609 0 1 0 8.556 79.03694245098299 0 0 0 0
610 0 1 0 9.982000000000001 79.03694245098299 0 0 0 0
611 0 1 0 10.694999999999999 77.8019902251864 0 0 0 0
612 0 1 0 12.120999999999999 77.8019902251864 0 0 0 0
615 0 1 0 10.694999999999999 80.27189467677961 0 0 0 0
616 0 1 0 12.120999999999999 80.27189467677961 0 0 0 0
841 0 1 0 12.834 74.09713354779657 0 0 0 0
842 0 1 0 14.26 74.09713354779657 0 0 0 0
845 0 1 0 12.834 76.56703799938978 0 0 0 0
846 0 1 0 14.26 76.56703799938978 0 0 0 0
847 0 1 0 14.972999999999999 75.33208577359318 0 0 0 0
849 0 1 0 12.834 79.03694245098299 0 0 0 0
850 0 1 0 14.26 79.03694245098299 0 0 0 0
851 0 1 0 14.972999999999999 77.8019902251864 0 0 0 0
855 0 1 0 14.972999999999999 80.27189467677961 0 0 0 0
133 0 1 0 0 81.50684690257623 0 0 0 0
134 0 1 0 1.426 81.50684690257623 0 0 0 0
137 0 1 0 0 83.97675135416944 0 0 0 0
138 0 1 0 1.426 83.97675135416944 0 0 0 0
139 0 1 0 2.139 82.74179912837283 0 0 0 0
140 0 1 0 3.5649999999999995 82.74179912837283 0 0 0 0
141 0 1 0 0 86.44665580576266 0 0 0 0
142 0 1 0 1.426 86.44665580576266 0 0 0 0
143 0 1 0 2.139 85.21170357996606 0 0 0 0
144 0 1 0 3.5649999999999995 85.21170357996606 0 0 0 0
373 0 1 0 4.278 81.50684690257623 0 0 0 0
374 0 1 0 5.704 81.50684690257623 0 0 0 0
377 0 1 0 4.278 83.97675135416944 0 0 0 0
378 0 1 0 5.704 83.97675135416944 0 0 0 0
379 0 1 0 6.417 82.74179912837283 0 0 0 0
381 0 1 0 4.278 86.44665580576266 0 0 0 0
382 0 1 0 5.704 86.44665580576266 0 0 0 0
383 0 1 0 6.417 85.21170357996606 0 0 0 0
380 0 1 0 7.843 82.74179912837283 0 0 0 0
384 0 1 0 7.843 85.21170357996606 0 0 0 0
613 0 1 0 8.556 81.50684690257623 0 0 0 0
614 0 1 0 9.982000000000001 81.50684690257623 0 0 0 0
617 0 1 0 8.556 83.97675135416944 0 0 0 0
618 0 1 0 9.982000000000001 83.97675135416944 0 0 0 0
619 0 1 0 10.694999999999999 82.74179912837283 0 0 0 0
620 0 1 0 12.120999999999999 82.74179912837283 0 0 0 0
621 0 1 0 8.556 86.44665580576266 0 0 0 0
622 0 1 0 9.982000000000001 86.44665580576266 0 0 0 0
623 0 1 0 10.694999999999999 85.21170357996606 0 0 0 0
624 0 1 0 12.120999999999999 85.21170357996606 0 0 0 0
853 0 1 0 12.834 81.50684690257623 0 0 0 0
854 0 1 0 14.26 81.50684690257623 0 0 0 0
857 0 1 0 12.834 83.97675135416944 0 0 0 0
858 0 1 0 14.26 83.97675135416944 0 0 0 0
859 0 1 0 14.972999999999999 82.74179912837283 0 0 0 0
861 0 1 0 12.834 86.44665580576266 0 0 0 0
862 0 1 0 14.26 86.44665580576266 0 0 0 0
863 0 1 0 14.972999999999999 85.21170357996606 0 0 0 0
145 0 1 0 0 88.91656025735588 0 0 0 0
146 0 1 0 1.426 88.91656025735588 0 0 0 0
147 0 1 0 2.139 87.68160803155928 0 0 0 0
148 0 1 0 3.5649999999999995 87.68160803155928 0 0 0 0
149 0 1 0 0 91.38646470894909 0 0 0 0
150 0 1 0 1.426 91.38646470894909 0 0 0 0
151 0 1 0 2.139 90.15151248315249 0 0 0 0
152 0 1 0 3.5649999999999995 90.15151248315249 0 0 0 0
155 0 1 0 2.139 92.6214169347457 0 0 0 0
156 0 1 0 3.5649999999999995 92.6214169347457 0 0 0 0
385 0 1 0 4.278 88.91656025735588 0 0 0 0
386 0 1 0 5.704 88.91656025735588 0 0 0 0
387 0 1 0 6.417 87.68160803155928 0 0 0 0
389 0 1 0 4.278 91.38646470894909 0 0 0 0
390 0 1 0 5.704 91.38646470894909 0 0 0 0
391 0 1 0 6.417 90.15151248315249 0 0 0 0
395 0 1 0 6.417 92.6214169347457 0 0 0 0
630 0 1 0 9.982000000000001 91.38646470894909 0 0 0 0
626 0 1 0 9.982000000000001 88.91656025735588 0 0 0 0
627 0 1 0 10.694999999999999 87.68160803155928 0 0 0 0
867 0 1 0 14.972999999999999 87.68160803155928 0 0 0 0
875 0 1 0 14.972999999999999 92.6214169347457 0 0 0 0
388 0 1 0 7.843 87.68160803155928 0 0 0 0
636 0 1 0 12.120999999999999 92.6214169347457 0 0 0 0
870 0 1 0 14.26 91.38646470894909 0 0 0 0
869 0 1 0 12.834 91.38646470894909 0 0 0 0
871 0 1 0 14.972999999999999 90.15151248315249 0 0 0 0
396 0 1 0 7.843 92.6214169347457 0 0 0 0
392 0 1 0 7.843 90.15151248315249 0 0 0 0
866 0 1 0 14.26 88.91656025735588 0 0 0 0
865 0 1 0 12.834 88.91656025735588 0 0 0 0
632 0 1 0 12.120999999999999 90.15151248315249 0 0 0 0
625 0 1 0 8.556 88.91656025735588 0 0 0 0
628 0 1 0 12.120999999999999 87.68160803155928 0 0 0 0
631 0 1 0 10.694999999999999 90.15151248315249 0 0 0 0
635 0 1 0 10.694999999999999 92.6214169347457 0 0 0 0
629 0 1 0 8.556 91.38646470894909 0 0 0 0
153 0 1 0 0 93.8563691605423 0 0 0 0
154 0 1 0 1.426 93.8563691605423 0 0 0 0
157 0 1 0 0 96.32627361213554 0 0 0 0
158 0 1 0 1.426 96.32627361213554 0 0 0 0
159 0 1 0 2.139 95.09132138633893 0 0 0 0
160 0 1 0 3.5649999999999995 95.09132138633893 0 0 0 0
161 0 1 0 0 98.79617806372876 0 0 0 0
162 0 1 0 1.426 98.79617806372876 0 0 0 0
163 0 1 0 2.139 97.56122583793216 0 0 0 0
164 0 1 0 3.5649999999999995 97.56122583793216 0 0 0 0
393 0 1 0 4.278 93.8563691605423 0 0 0 0
394 0 1 0 5.704 93.8563691605423 0 0 0 0
397 0 1 0 4.278 96.32627361213554 0 0 0 0
398 0 1 0 5.704 96.32627361213554 0 0 0 0