LAMMPS (4 Feb 2025)
OMP_NUM_THREADS environment is not set. Defaulting to 1 thread. (src/comm.cpp:99)
  using 1 OpenMP thread(s) per MPI task
# LAMMPS script for running NVT simulation

units       metal
dimension   3
boundary    p p p
atom_style  full
atom_modify map yes

newton      on

read_data   ../start.lammps-data
Reading data file ...
  orthogonal box = (0 0 0) to (154.31602 148.49066 151.07317)
  16 by 8 by 8 MPI processor grid
  reading atoms ...
  11640 atoms
  reading velocities ...
  11640 velocities
Finding 1-2 1-3 1-4 neighbors ...
  special bond factors lj:    0        0        0       
  special bond factors coul:  0        0        0       
     0 = max # of 1-2 neighbors
     0 = max # of 1-3 neighbors
     0 = max # of 1-4 neighbors
     1 = max # of special neighbors
  special bonds CPU = 5.982 seconds
  read_data CPU = 6.163 seconds

pair_style  symmetrix/mace
pair_coeff  * * ../../../00-common/models/ch2o-dens-inv_swa-1-6-8.json C H O
Loading MACE model from '../../../00-common/models/ch2o-dens-inv_swa-1-6-8.json' ... success
  mapping LAMMPS type 1 (C) to MACE type 1
  mapping LAMMPS type 2 (H) to MACE type 0
  mapping LAMMPS type 3 (O) to MACE type 2

variable t equal step

group graphene type 1
8640 atoms in group graphene
group H2O type 2 3
3000 atoms in group H2O

thermo 1000

######### NVT equilibration for 80 ps #############

dump DUMP1 all atom 100 nvt_equi.lammpstrj
timestep 0.001
fix NVT1 graphene nvt temp 300 300 0.1
fix NVT2 H2O nvt temp 300 300 0.1
run 80000
Neighbor list info ...
  update: every = 1 steps, delay = 0 steps, check = yes
  max neighbors/atom: 2000, page size: 100000
  master list distance cutoff = 8
  ghost atom cutoff = 8
  binsize = 4, bins = 39 38 38
  1 neighbor lists, perpetual/occasional/extra = 1 0 0
  (1) pair symmetrix/mace, perpetual
      attributes: full, newton on
      pair build: full/bin
      stencil: full/bin/3d
      bin: standard
Per MPI rank memory allocation (min/avg/max) = 5.921 | 6.239 | 8.661 Mbytes
   Step          Temp          E_pair         E_mol          TotEng         Press     
         0   78.173347     -1810217.4      0             -1810099.8     -83.311077    
      1000   83.663598     -1810206.2      0             -1810080.3     -158.37125    
      2000   164.57515     -1810113.2      0             -1809865.6     -799.12389    
      3000   288.76063     -1809947.1      0             -1809512.6     -1368.7692    
      4000   297.58093     -1809927.5      0             -1809479.8     -1282.0217    
      5000   299.817       -1809918        0             -1809466.9     -1195.8615    
      6000   293.14879     -1809925.8      0             -1809484.8     -1198.641     
      7000   299.60325     -1809926.2      0             -1809475.5     -951.74194    
      8000   302.64071     -1809909.3      0             -1809453.9     -1083.0055    
      9000   300.13343     -1809931.9      0             -1809480.4     -975.66687    
     10000   303.58052     -1809938.7      0             -1809482       -955.78936    
     11000   308.65219     -1809922.7      0             -1809458.3     -965.31604    
     12000   294.81866     -1809925.2      0             -1809481.7     -956.28859    
     13000   306.18607     -1809920.8      0             -1809460.2     -858.63764    
     14000   307.99627     -1809919.4      0             -1809456       -800.80869    
     15000   299.40149     -1809913.8      0             -1809463.4     -802.75809    
     16000   301.34297     -1809924.7      0             -1809471.3     -696.1094     
     17000   296.95038     -1809916        0             -1809469.2     -738.47451    
     18000   300.66403     -1809920        0             -1809467.7     -683.28724    
     19000   301.63317     -1809922.8      0             -1809469       -615.46849    
     20000   300.74919     -1809916.1      0             -1809463.7     -616.92818    
     21000   299.89545     -1809924.7      0             -1809473.5     -591.60459    
     22000   300.83226     -1809918.8      0             -1809466.2     -627.27235    
     23000   304.52622     -1809920.8      0             -1809462.6     -566.69772    
     24000   298.77557     -1809918.3      0             -1809468.8     -513.09393    
     25000   296.45305     -1809919.4      0             -1809473.4     -594.28146    
     26000   299.51099     -1809920.9      0             -1809470.3     -530.64153    
     27000   301.3368      -1809919.1      0             -1809465.8     -488.72471    
     28000   299.7217      -1809923.5      0             -1809472.6     -437.16801    
     29000   299.53548     -1809927.1      0             -1809476.4     -415.99322    
     30000   303.35011     -1809919.8      0             -1809463.4     -480.6848     
     31000   298.85268     -1809929.2      0             -1809479.6     -420.33036    
     32000   300.03924     -1809925.8      0             -1809474.4     -396.91056    
     33000   295.89923     -1809926.3      0             -1809481.1     -334.39566    
     34000   300.69502     -1809927.6      0             -1809475.2     -325.37423    
     35000   300.47062     -1809922.7      0             -1809470.7     -354.37282    
     36000   299.24307     -1809925.6      0             -1809475.4     -324.72506    
     37000   304.73701     -1809926        0             -1809467.5     -365.42558    
     38000   298.6752      -1809924.1      0             -1809474.7     -336.15474    
     39000   299.37006     -1809928.4      0             -1809478       -329.37332    
     40000   299.47509     -1809928.1      0             -1809477.5     -317.74053    
     41000   306.7128      -1809932.5      0             -1809471.1     -292.7321     
     42000   299.68709     -1809928        0             -1809477.1     -309.37761    
     43000   298.41213     -1809926.7      0             -1809477.7     -307.00161    
     44000   303.34959     -1809927.1      0             -1809470.8     -299.38556    
     45000   297.13161     -1809931.9      0             -1809484.9     -298.14784    
     46000   300.99025     -1809928.2      0             -1809475.4     -292.91626    
     47000   303.43469     -1809928        0             -1809471.5     -231.96381    
     48000   298.84337     -1809924.7      0             -1809475.1     -232.77915    
     49000   298.86222     -1809923.3      0             -1809473.7     -268.52576    
     50000   301.7723      -1809929.2      0             -1809475.2     -290.02341    
     51000   300.36444     -1809922.1      0             -1809470.2     -301.14949    
     52000   302.96901     -1809926.1      0             -1809470.3     -266.44927    
     53000   305.24029     -1809931.6      0             -1809472.3     -244.14123    
     54000   303.17593     -1809934.8      0             -1809478.7     -206.99775    
     55000   302.27838     -1809929.1      0             -1809474.3     -230.36587    
     56000   298.7356      -1809930.1      0             -1809480.6     -246.08105    
     57000   301.09093     -1809928.4      0             -1809475.4     -266.49884    
     58000   300.35507     -1809928.8      0             -1809477       -251.40548    
     59000   300.75833     -1809922.6      0             -1809470.1     -249.44901    
     60000   298.19367     -1809923.5      0             -1809474.9     -242.16982    
     61000   300.05001     -1809931.1      0             -1809479.6     -255.59359    
     62000   299.3404      -1809926.1      0             -1809475.8     -235.58256    
     63000   301.17814     -1809929.2      0             -1809476.1     -262.17797    
     64000   297.23135     -1809928.7      0             -1809481.5     -227.39529    
     65000   306.81284     -1809934.1      0             -1809472.6     -212.45346    
     66000   301.12384     -1809924.1      0             -1809471.1     -231.64997    
     67000   301.65121     -1809930.8      0             -1809477       -247.94727    
     68000   299.74568     -1809927.4      0             -1809476.5     -229.70505    
     69000   301.15592     -1809925.5      0             -1809472.4     -208.86569    
     70000   299.75101     -1809930        0             -1809479.1     -198.30118    
     71000   299.92908     -1809926.1      0             -1809474.8     -201.0828     
     72000   306.57256     -1809934.9      0             -1809473.7     -187.09588    
     73000   299.00243     -1809930.2      0             -1809480.4     -242.78032    
     74000   299.35617     -1809924.8      0             -1809474.4     -256.97734    
     75000   303.6249      -1809924.4      0             -1809467.6     -230.67415    
     76000   299.30751     -1809928.9      0             -1809478.6     -181.60373    
     77000   299.44437     -1809927.2      0             -1809476.7     -183.77338    
     78000   299.62067     -1809928.3      0             -1809477.5     -163.1667     
     79000   297.36981     -1809925.5      0             -1809478.1     -200.7035     
     80000   301.2198      -1809928.9      0             -1809475.8     -222.35215    
Loop time of 60687.6 on 1024 procs for 80000 steps with 11640 atoms

Performance: 0.114 ns/day, 210.721 hours/ns, 1.318 timesteps/s, 15.344 katom-step/s
100.0% CPU use with 1024 MPI tasks x 1 OpenMP threads

MPI task timing breakdown:
Section |  min time  |  avg time  |  max time  |%varavg| %total
---------------------------------------------------------------
Pair    | 1356       | 5614.2     | 25773      |6810.6 |  9.25
Bond    | 0.0046364  | 0.0077247  | 0.014531   |   2.1 |  0.00
Neigh   | 0.057643   | 0.13889    | 1.2755     |  44.8 |  0.00
Comm    | 18.549     | 2046.8     | 8352.9     |3850.6 |  3.37
Output  | 0.58165    | 5.2222     | 10.361     | 129.9 |  0.01
Modify  | 31145      | 53014      | 59266      |2742.4 | 87.35
Other   |            | 7.576      |            |       |  0.01

Nlocal:        11.3672 ave         257 max           0 min
Histogram: 885 2 114 6 0 3 5 2 1 6
Nghost:        72.4746 ave        1582 max           0 min
Histogram: 830 141 26 4 8 6 3 4 0 2
Neighs:              0 ave           0 max           0 min
Histogram: 1024 0 0 0 0 0 0 0 0 0
FullNghs:      1218.95 ave       50395 max           0 min
Histogram: 919 84 3 3 3 2 3 1 2 4

Total # of neighbors = 1248200
Ave neighs/atom = 107.23368
Ave special neighs/atom = 0
Neighbor list builds = 3745
Dangerous builds = 0

write_restart nvt_equi.restart.*
System init for write_restart ...
write_data nvt_equi_final.lammps-data
System init for write_data ...

Total wall time: 16:51:52
