LAMMPS data file via write_data, version 4 Feb 2025, timestep = 80000, units = metal

11640 atoms
3 atom types

0 154.316016 xlo xhi
0 148.49065562978433 ylo yhi
0 151.07316997686289 zlo zhi

Masses

1 12.01099999691024
2 1.007999999740698
3 15.99899999588435

Atoms # full

8013 0 1 0 1.783553452606172 1.323501939608333 26.78604897888902 1 0 1
7776 0 1 0 1.0475259916119313 0.09273923720520509 26.86682046070774 1 0 1
8015 0 1 0 3.905609720791828 0.1576814573283515 26.92323651594287 1 0 1
8014 0 1 0 3.1745828889617016 1.371264705446537 26.79237781077229 1 0 1
7780 0 1 0 1.0551827320551515 2.5328026284697396 26.76328417578697 1 0 1
8019 0 1 0 3.9128842360297464 2.582480157968365 26.74637787972077 1 0 1
8017 0 1 0 1.714723072387943 3.780504376512991 26.819673396819123 1 0 1
8018 0 1 0 3.191378218176753 3.8194676410952377 26.799347402803093 1 0 1
8016 0 1 0 5.34605929608032 0.10510580489364427 27.094857656266548 1 0 1
8264 0 1 0 9.622691768148346 5.0302571166634165 26.963131780439774 1 0 1
8255 0 1 0 8.274902140635264 0.08465980687227109 27.0712639159137 1 0 1
8253 0 1 0 6.092029998199572 1.3084824784788358 27.04216239854727 1 0 1
8254 0 1 0 7.537243023445658 1.3075796346726831 26.97640013332436 1 0 1
8044 0 1 0 5.314695286317282 17.373182846947827 27.656754051781558 1 0 1
8259 0 1 0 8.175844270115588 2.557337818682977 26.887748322277517 1 0 1
8020 0 1 0 5.371871730624084 2.5506831991664414 26.83562304250569 1 0 1
8257 0 1 0 6.015409891551353 3.8513722578094387 26.914975282426443 1 0 1
8258 0 1 0 7.447002753367526 3.816952287552319 26.992624092130118 1 0 1
7784 0 1 0 1.0715963520671072 4.992571150987669 26.9007474085161 1 0 1
8023 0 1 0 3.903921523948709 5.032782309999569 26.852425456892803 1 0 1
8021 0 1 0 1.7538610348308987 6.2626516715834395 26.958615597792843 1 0 1
8022 0 1 0 3.2140892745481215 6.286223021675233 26.95046197972358 1 0 1
7788 0 1 0 1.0293692966033807 7.531511059373965 27.175518253204164 1 0 1
8027 0 1 0 3.8756306558108076 7.539429465454897 27.14273993232469 1 0 1
8024 0 1 0 5.3107126387544055 5.068067218617129 26.903450717789376 1 0 1
8261 0 1 0 6.031627785533268 6.29825270728327 27.132630739082426 1 0 1
8263 0 1 0 8.182247049989984 5.038837735306626 27.110221626740525 1 0 1
8279 0 1 0 8.194875075918336 14.89085371179784 27.468506606209562 1 0 1
8262 0 1 0 7.467472001049789 6.278708070783056 27.189505685489664 1 0 1
8028 0 1 0 5.294108642609271 7.540554264233073 27.198430795107875 1 0 1
8267 0 1 0 8.181903176148156 7.493372914926143 27.305197709262835 1 0 1
8268 0 1 0 9.601386194718481 7.477527198107602 27.161606559882266 1 0 1
8029 0 1 0 1.8090198532737243 11.247185054749337 27.40933643590532 1 0 1
8031 0 1 0 3.873182123033626 9.999065864460048 27.482044282005557 1 0 1
8025 0 1 0 1.7627990549671142 8.7798815150829 27.322824930279214 1 0 1
8026 0 1 0 3.161287807037542 8.78117156264783 27.348833400885326 1 0 1
8030 0 1 0 3.2282834276812835 11.224209258102993 27.385151840544793 1 0 1
7792 0 1 0 1.0510982817487124 10.050701231698962 27.274350776887847 1 0 1
8035 0 1 0 3.9184104818678933 12.473395908914695 27.33147095688349 1 0 1
7796 0 1 0 1.063166798160178 12.488861559289818 27.383360727138733 1 0 1
8275 0 1 0 8.221970766234865 12.474207111511635 27.320667880968873 1 0 1
8032 0 1 0 5.309573246175626 9.99911848313629 27.411083640604684 1 0 1
8269 0 1 0 6.065222678882461 11.190133120793567 27.376783125814207 1 0 1
8265 0 1 0 6.045231911930297 8.757098379587251 27.400267933152307 1 0 1
8266 0 1 0 7.4942875234067134 8.742887585778652 27.389494564802046 1 0 1
8270 0 1 0 7.4861695315321874 11.212603510692102 27.337784990521936 1 0 1
8271 0 1 0 8.216202387148087 9.95076557552619 27.401174639571366 1 0 1
8272 0 1 0 9.62417070837049 9.979117752994929 27.267176733539767 1 0 1
8036 0 1 0 5.339230882167243 12.462010744125342 27.361008645788726 1 0 1
8276 0 1 0 9.642822007579527 12.475841678581421 27.320631144762906 1 0 1
7800 0 1 0 1.0373065443579634 14.96264569333848 27.498584081648858 1 0 1
8034 0 1 0 3.1580365953956124 13.660059104861286 27.40535599919258 1 0 1
8039 0 1 0 3.816817230656081 14.95616098042247 27.46190479476315 1 0 1
8038 0 1 0 3.1056649750574667 16.166625412214042 27.53410695111339 1 0 1
8033 0 1 0 1.753213995578704 13.729624957098979 27.404813496591835 1 0 1
8037 0 1 0 1.715908171206946 16.22575099039769 27.658666146397543 1 0 1
7804 0 1 0 1.016699238784796 17.470977225552726 27.733655983645654 1 0 1
8043 0 1 0 3.8439311897402964 17.38990645897993 27.665503288240068 1 0 1
8280 0 1 0 9.600372584494462 14.940691270459679 27.370971531204102 1 0 1
8260 0 1 0 9.614817306600196 2.539798724824353 26.88595969874379 1 0 1
8283 0 1 0 8.203748654373655 17.39892881693344 27.597668607802078 1 0 1
8040 0 1 0 5.267877410500621 14.927340948181536 27.471289258855375 1 0 1
8277 0 1 0 6.0272730672996095 16.18303624590847 27.536731915185648 1 0 1
8278 0 1 0 7.462496879794734 16.165642502754817 27.581566075839334 1 0 1
8274 0 1 0 7.470323075286487 13.709596901739983 27.394325654560408 1 0 1
8273 0 1 0 6.044528686015496 13.713992655026631 27.409475296025935 1 0 1
8042 0 1 0 3.182010428663063 18.65447060832852 27.678795405782157 1 0 1
8041 0 1 0 1.7599841721034448 18.67594503836129 27.799554308215253 1 0 1
8047 0 1 0 3.896438450008917 19.857376434672364 27.70872883880435 1 0 1
7808 0 1 0 1.0843173865336504 19.90190600380166 27.760982344740558 1 0 1
8045 0 1 0 1.7799874401459543 21.13755937225937 27.75234634973237 1 0 1
8046 0 1 0 3.19850775036807 21.130432649322184 27.743743410364676 1 0 1
8051 0 1 0 3.9289158372879354 22.37255217225359 27.765453530276023 1 0 1
7812 0 1 0 1.091545076977145 22.367166564908906 27.936939473711167 1 0 1
8048 0 1 0 5.298452454368704 19.861076418672877 27.79809807961233 1 0 1
8281 0 1 0 6.012069982368134 18.63822471462343 27.702951118499413 1 0 1
8282 0 1 0 7.448216374451024 18.611328731880224 27.668221449286214 1 0 1
8287 0 1 0 8.199408057851674 19.856998975344816 27.632269466017654 1 0 1
8288 0 1 0 9.614102304280594 19.854044260941688 27.417585047533713 1 0 1
8285 0 1 0 6.016081022057802 21.152973982897553 27.777772827264283 1 0 1
8286 0 1 0 7.497692558008209 21.073876264884312 27.739464770555102 1 0 1
8052 0 1 0 5.30590998192357 22.35346833268018 27.698514768506605 1 0 1
8291 0 1 0 8.199523813433395 22.299797520880798 27.75325280043825 1 0 1
8304 0 1 0 9.58247146449283 29.77060490822629 27.895447375205237 1 0 1
8049 0 1 0 1.787104759430128 23.582099965113382 28.143801427437772 1 0 1
7816 0 1 0 1.099214493304278 24.792650522196464 28.272516916573565 1 0 1
8050 0 1 0 3.2626328354302885 23.602315353603807 27.966196721709636 1 0 1
8055 0 1 0 3.9125279529682198 24.860659483651872 28.135561987135777 1 0 1
8053 0 1 0 1.7790116158096818 26.044189616137757 28.44101678887651 1 0 1
8054 0 1 0 3.2016116644177646 26.09864228651114 28.350745937793494 1 0 1
8056 0 1 0 5.359065525050391 24.874773811080843 27.994926043164604 1 0 1
8296 0 1 0 9.604696076923124 24.786564536182034 27.620803536747502 1 0 1
8295 0 1 0 8.154750024485631 24.784107368243824 27.88233698121909 1 0 1
8289 0 1 0 6.041761938937221 23.595650568681794 27.724306785230716 1 0 1
8290 0 1 0 7.442389556582623 23.524373150295602 27.80545967490593 1 0 1
8294 0 1 0 7.4772992060082295 26.03987197755042 27.98065863810777 1 0 1
8293 0 1 0 6.060222302834867 26.09308571494532 28.130403689270402 1 0 1
8063 0 1 0 3.9241811705364613 29.73905555057298 28.546527059058 1 0 1
8058 0 1 0 3.1490201820882557 28.562166804216062 28.553515161332527 1 0 1
7824 0 1 0 1.0409328550462689 29.732943615574754 28.795004265829018 1 0 1
7820 0 1 0 1.065746759024815 27.277468050569613 28.532480610815895 1 0 1
8057 0 1 0 1.768635823350868 28.48050931636319 28.701189764911142 1 0 1
8059 0 1 0 3.889442753044845 27.312593844666754 28.44324226057982 1 0 1
8062 0 1 0 3.1617688341774937 30.959060196486103 28.637050527685048 1 0 1
8061 0 1 0 1.7404429368875265 30.956217386000056 28.72729690243191 1 0 1
8060 0 1 0 5.311862543390957 27.322520925284138 28.25148456680512 1 0 1
8064 0 1 0 5.349434676206173 29.776721183299088 28.263053805101023 1 0 1
8303 0 1 0 8.161269435790675 29.739411247413155 27.961991860859087 1 0 1
8299 0 1 0 8.159934956278027 27.292420521523642 28.00456780540037 1 0 1
8297 0 1 0 6.064973452013003 28.533523110239834 28.253926084484885 1 0 1
8298 0 1 0 7.443094938363332 28.51356815255711 28.094009655852986 1 0 1
8309 0 1 0 6.020711414906559 35.95347410126025 28.100447617560906 1 0 1
8308 0 1 0 9.556931103595478 32.22618165939243 27.999378226797415 1 0 1
8302 0 1 0 7.43960076975454 30.975624884802208 28.031952924497553 1 0 1
8301 0 1 0 6.031186890751281 30.982196430610983 28.11949856054425 1 0 1
8067 0 1 0 3.8563064759903503 32.19310405405643 28.486637459174034 1 0 1
8066 0 1 0 3.1414022516575786 33.45174736285059 28.560297634768084 1 0 1
8065 0 1 0 1.7226847060798807 33.44126456620651 28.69499740001558 1 0 1
7828 0 1 0 1.0235679429262496 32.1794666311737 28.739805275535897 1 0 1
7832 0 1 0 1.0100050817308797 34.702713709669126 28.79604624078338 1 0 1
8071 0 1 0 3.8639729121468793 34.736264239245976 28.41157320808982 1 0 1
8070 0 1 0 3.145860297759295 35.967810748527214 28.46916661689937 1 0 1
8069 0 1 0 1.6899695989806653 35.93597670014134 28.730774209715236 1 0 1
8306 0 1 0 7.386723897298397 33.494241313151335 27.98462636750522 1 0 1
8311 0 1 0 8.15277294682604 34.72658086535363 28.01846919942785 1 0 1
8305 0 1 0 5.925301415961337 33.450002870035895 28.194209892830848 1 0 1
8310 0 1 0 7.4043287481047555 35.965162848919256 28.088171258362173 1 0 1
8068 0 1 0 5.290991643614952 32.172362638268055 28.286482512777887 1 0 1
8072 0 1 0 5.282351113236311 34.72055713820473 28.227439425767887 1 0 1
8307 0 1 0 8.131266060941977 32.21395768413831 28.044689809803945 1 0 1
8300 0 1 0 9.585053425860561 27.2873538117032 27.839878709786433 1 0 1
8312 0 1 0 9.580781291450005 34.71903574182913 27.91418955501858 1 0 1
8292 0 1 0 9.594387080940805 22.364332067507647 27.53696598868368 1 0 1
7836 0 1 0 1.0456971548775915 37.1908755395109 28.882060271469623 1 0 1
7840 0 1 0 1.0046101158678313 39.6808563925291 28.736858355066296 1 0 1
8075 0 1 0 3.8282537112064166 37.22102579537718 28.287250402704547 1 0 1
8073 0 1 0 1.735027461829278 38.420717592945 28.733880583572702 1 0 1
8074 0 1 0 3.0797531339680653 38.458870308405146 28.505904691274026 1 0 1
8079 0 1 0 3.8375475665529413 39.66849634075507 28.45798873867586 1 0 1
8077 0 1 0 1.7592610263340482 40.88164192762926 28.77959452009366 1 0 1
8078 0 1 0 3.218558080579614 40.89243122967906 28.65856061872887 1 0 1
8313 0 1 0 6.023139339826239 38.43675821036617 28.277582786748983 1 0 1
8315 0 1 0 8.112609760981943 37.19056870692313 28.03166294223741 1 0 1
8316 0 1 0 9.57370642130912 37.191024912991665 27.941368717545377 1 0 1
8314 0 1 0 7.431080897216834 38.3930452324676 28.13589188607628 1 0 1
8076 0 1 0 5.282426170776656 37.20837056602665 28.174089112017686 1 0 1
8080 0 1 0 5.270529894290147 39.64496685694869 28.325434016345163 1 0 1
8320 0 1 0 9.589363461884922 39.615885114838015 27.965667426623167 1 0 1
8319 0 1 0 8.189198412527311 39.639849345952115 28.087200188339033 1 0 1
8318 0 1 0 7.472199584567819 40.88479425343906 28.207710623765166 1 0 1
8317 0 1 0 6.008286840619033 40.90316658952572 28.30280532413544 1 0 1
8081 0 1 0 1.7720031141162698 43.32889550225523 29.019932430826064 1 0 1
8082 0 1 0 3.2171584741610886 43.3376367761107 28.96444966448858 1 0 1
7844 0 1 0 1.014816064942715 42.1385379240196 28.96818507700792 1 0 1
8083 0 1 0 3.9221443101588 42.11873127203164 28.748128665379927 1 0 1
7848 0 1 0 1.0574487586844146 44.60238549426953 28.970713285240777 1 0 1
8087 0 1 0 3.902401494978938 44.590699379534755 28.85318888524598 1 0 1
8084 0 1 0 5.317524305969022 42.09508694627846 28.530484143029287 1 0 1
8323 0 1 0 8.175156740473271 42.15328439648352 28.183147981110984 1 0 1
8324 0 1 0 9.604561875363856 42.153951898683935 28.03334918982044 1 0 1
8322 0 1 0 7.4459969450972245 43.36667044196331 28.346193470276333 1 0 1
8321 0 1 0 6.00570437882268 43.33939913038063 28.389557825379992 1 0 1
8088 0 1 0 5.297148352465959 44.57264638442367 28.576211013566358 1 0 1
8343 0 1 0 8.220049063440767 54.58090940774295 28.998666574058003 1 0 1
8327 0 1 0 8.183240712367525 44.617540480660416 28.53782301608781 1 0 1
8089 0 1 0 1.8120555661781392 48.37407759987276 29.101850587175154 1 0 1
8090 0 1 0 3.1978509781894515 48.33162979380734 29.064503373021555 1 0 1
7852 0 1 0 1.1215737144068838 47.130031548861034 29.082844844400682 1 0 1
8091 0 1 0 3.906115106889214 47.097608432360516 28.960034313247416 1 0 1
8085 0 1 0 1.7445623079694914 45.86948880262622 28.993912931281088 1 0 1
8086 0 1 0 3.1755972391218927 45.835395659753786 28.951731624074434 1 0 1
7856 0 1 0 1.0509668318039989 49.60643964851884 29.186508683972498 1 0 1
8095 0 1 0 3.8930347648457975 49.561639968075525 29.132120623953256 1 0 1
8329 0 1 0 6.066048262057448 48.29559173585267 28.811693165967682 1 0 1
8328 0 1 0 9.625031926968337 44.62429875326329 28.413747276100555 1 0 1
8092 0 1 0 5.322680548080937 47.066698037019044 28.750837948268764 1 0 1
8330 0 1 0 7.533280799387883 48.34691604399178 28.865934893824534 1 0 1
8331 0 1 0 8.181675042158417 47.08609338931828 28.713962074532976 1 0 1
8325 0 1 0 6.055590149977207 45.83053006822908 28.576472345038198 1 0 1
8326 0 1 0 7.449984100780754 45.78527271090118 28.598929319002995 1 0 1
8096 0 1 0 5.315791470895652 49.5220053361266 29.05878689883574 1 0 1
8339 0 1 0 8.229233353772276 52.113146531438886 28.93955731113498 1 0 1
8335 0 1 0 8.232330629826851 49.6215580757987 28.98178909953983 1 0 1
7864 0 1 0 1.1091045516721105 54.55386273298855 29.65147754343681 1 0 1
8099 0 1 0 3.932585740207568 52.08358683411763 29.18638338916837 1 0 1
7860 0 1 0 1.1100529499218608 52.06514694066813 29.435323497188424 1 0 1
8093 0 1 0 1.7631812057869747 50.81374187003156 29.2958680659031 1 0 1
8094 0 1 0 3.2330920973294686 50.87175507525574 29.211074943578534 1 0 1
8098 0 1 0 3.2199902062759156 53.37121996390392 29.339202112168973 1 0 1
8097 0 1 0 1.8399709957827244 53.334619904485926 29.483123880954636 1 0 1
8103 0 1 0 3.9489588860433655 54.61150717994365 29.403339896792538 1 0 1
8338 0 1 0 7.510764871271783 53.319423776127245 28.911598408790393 1 0 1
8337 0 1 0 6.042977335402946 53.281064032066304 29.010290902546565 1 0 1
8104 0 1 0 5.363565794142782 54.56612007734008 29.144134873289204 1 0 1
8100 0 1 0 5.3641589110704615 52.03877944129396 29.046452737609524 1 0 1
8334 0 1 0 7.5251525856375405 50.85142213974761 29.06168113567466 1 0 1
8333 0 1 0 6.072133021938978 50.79008684839972 29.030553017008263 1 0 1
8332 0 1 0 9.56776044781964 47.11377178131721 28.70677476496422 1 0 1
8102 0 1 0 3.2574225650316952 55.81395979502503 29.60061907580858 1 0 1
8101 0 1 0 1.7924077682636663 55.84088760263635 29.65792929763676 1 0 1
8107 0 1 0 3.9400755217152814 57.03961943719387 29.5129001736148 1 0 1
7868 0 1 0 1.0684681226084904 57.03274030187855 29.65041539228571 1 0 1
8105 0 1 0 1.8200534481412485 58.28018909963948 29.619106844723284 1 0 1
7872 0 1 0 1.1070136684604706 59.57109231500724 29.703240557841237 1 0 1
8106 0 1 0 3.2642091210575446 58.291046334080676 29.662623245881036 1 0 1
8111 0 1 0 3.9380134030817904 59.541044713988974 29.73703030954216 1 0 1
8108 0 1 0 5.399425564288526 57.06055137798438 29.48287012976743 1 0 1
8342 0 1 0 7.497347673170609 55.804788583418606 29.048800115842806 1 0 1
8341 0 1 0 6.075960630234186 55.85239492777021 29.225430475611052 1 0 1
8347 0 1 0 8.237948426051474 57.04865245112846 29.178378924598498 1 0 1
8366 0 1 0 7.511576322189651 70.58089137571058 29.102080592975046 1 0 1
8346 0 1 0 7.540753928153744 58.27811375441718 29.390592316559722 1 0 1
8345 0 1 0 6.082260089467237 58.29540489133129 29.608927212557223 1 0 1
8112 0 1 0 5.329660392553979 59.5023938474665 29.71060040316199 1 0 1
8351 0 1 0 8.248718955340097 59.47415445690511 29.410407424113714 1 0 1
8371 0 1 0 8.278384152945648 71.83144457118036 29.1275448084423 1 0 1
8109 0 1 0 1.8449077363066462 60.76384198145413 29.908630012894577 1 0 1
8110 0 1 0 3.2434344955740118 60.74518235898074 29.842727688714703 1 0 1
7876 0 1 0 1.0682403854115556 61.9924487399033 29.958596474341356 1 0 1
8115 0 1 0 3.953488956628866 61.97230815848311 29.825434465888332 1 0 1
8113 0 1 0 1.7562668538638024 63.23071946136678 29.89642947162547 1 0 1
8114 0 1 0 3.221192157330731 63.23949710976862 29.809628653773263 1 0 1
8116 0 1 0 5.397949755755788 61.96050745055717 29.685535295610403 1 0 1
8128 0 1 0 5.390450552388199 69.3833852779084 29.303289675791227 1 0 1
8350 0 1 0 7.510320199229153 60.710238322328735 29.479101289636027 1 0 1
8355 0 1 0 8.17340098551161 61.976977835052836 29.319291190610375 1 0 1
8349 0 1 0 6.0812460847881 60.68181941847552 29.636713793849065 1 0 1
8353 0 1 0 6.062317873823934 63.22517080665766 29.520415179866433 1 0 1
8354 0 1 0 7.4910802906326905 63.23164233438263 29.394368927546484 1 0 1
7884 0 1 0 0.997587089217657 66.9092419157401 29.67468902719692 1 0 1
8121 0 1 0 1.7526403659546748 68.15809658366851 29.610564978639136 1 0 1
8117 0 1 0 1.72359764591949 65.65465424741853 29.640799615133613 1 0 1
7880 0 1 0 1.0181824359944658 64.43531539594534 29.7813349510282 1 0 1
8118 0 1 0 3.1834832170149903 65.67732710804155 29.496044333500063 1 0 1
8119 0 1 0 3.9067737844335317 64.48120005869096 29.597984493059208 1 0 1
8123 0 1 0 3.9153235516411495 66.8725652309005 29.37273101151364 1 0 1
8122 0 1 0 3.2017597707730188 68.13245274618207 29.49856990671684 1 0 1
8120 0 1 0 5.3480658458916315 64.44274573638589 29.499747144234536 1 0 1
8124 0 1 0 5.346911280401506 66.9239841380693 29.288272407222188 1 0 1
8365 0 1 0 6.081622464530808 70.6251015235203 29.18519209064591 1 0 1
8369 0 1 0 6.083144280042244 73.08191501128894 29.109530865582233 1 0 1
8358 0 1 0 7.4458238314816665 65.66330525414247 29.112525673495476 1 0 1
8357 0 1 0 6.030851203913505 65.69389118259413 29.275389062609495 1 0 1
8359 0 1 0 8.175073738916337 64.45201060148614 29.21373694709489 1 0 1
8363 0 1 0 8.178062714861605 66.89219538205411 28.99863779551949 1 0 1
8361 0 1 0 6.066281788723929 68.12615135510136 29.230394547909526 1 0 1
8362 0 1 0 7.531210667824822 68.10998844231776 29.138075492321207 1 0 1
7892 0 1 0 1.0752081083504612 71.88719632282282 29.696789952072045 1 0 1
8125 0 1 0 1.7986464318065871 70.62096356088325 29.62576895058461 1 0 1
7888 0 1 0 1.0430459088834472 69.40507060454186 29.67610040808157 1 0 1
8131 0 1 0 3.952724913439507 71.82229991409316 29.436764448728724 1 0 1
8126 0 1 0 3.219983370230714 70.6193034406065 29.48613664460522 1 0 1
8127 0 1 0 3.967306007345239 69.35267669615841 29.4569628310092 1 0 1
8129 0 1 0 1.7831902313473802 73.1569672353412 29.60305545296057 1 0 1
8130 0 1 0 3.202449050231726 73.12412121320183 29.440380724975018 1 0 1
8370 0 1 0 7.557206813640111 73.10882434713481 29.065998912346497 1 0 1
8367 0 1 0 8.292424180760847 69.34127473141336 29.11599840673424 1 0 1
8132 0 1 0 5.373746691297118 71.86592554875809 29.24314772475454 1 0 1
8364 0 1 0 9.608979111040757 66.90688826658112 28.90853682595724 1 0 1
8356 0 1 0 9.6200462821824 62.03216300595286 29.260493059253125 1 0 1
8360 0 1 0 9.607084063888664 64.45218901210701 29.149486942900932 1 0 1
8133 0 1 0 1.795559788553844 75.6297685020102 29.38331752189417 1 0 1
7896 0 1 0 1.0927240766749848 74.3898832521822 29.579044083156127 1 0 1
8134 0 1 0 3.2247321527560513 75.56621140015845 29.243688888428096 1 0 1
8135 0 1 0 3.955983865042504 74.32080478306908 29.359748173915303 1 0 1
7900 0 1 0 1.0806091193260428 76.8283754669887 29.321529269252657 1 0 1
8139 0 1 0 3.9622225944659575 76.78343516264601 29.13918847970576 1 0 1
8137 0 1 0 1.7623045369075112 78.04395511547283 29.247344156705697 1 0 1
8138 0 1 0 3.2003754096052073 78.01453559742275 29.11287403018041 1 0 1
8136 0 1 0 5.343625482601462 74.32495211044672 29.132168770738097 1 0 1
8373 0 1 0 6.052203716715909 75.5854210535779 29.01658645540692 1 0 1
8374 0 1 0 7.4888739498590695 75.60947473743734 28.934138365411286 1 0 1
8375 0 1 0 8.234932905514745 74.35505002858385 28.99212673777456 1 0 1
8140 0 1 0 5.370103260774974 76.82682109577888 28.95914705357315 1 0 1
8379 0 1 0 8.208320492338308 76.85261830480829 28.995103637114344 1 0 1
8377 0 1 0 6.112451944423442 78.02978966877586 28.898511352808185 1 0 1
8378 0 1 0 7.5033384895867465 78.08663352885902 28.984315065703438 1 0 1
8400 0 1 0 9.64115528272277 89.24410412608941 28.63000429290109 1 0 1
8397 0 1 0 6.086500875105825 90.44838166421819 28.704158571278885 1 0 1
8142 0 1 0 3.284013743949716 80.5105005271835 29.106292080710887 1 0 1
8143 0 1 0 3.952101832279667 79.2295818831085 29.09985812191096 1 0 1
8141 0 1 0 1.8492640715111999 80.54208533722257 29.184299202166493 1 0 1
7904 0 1 0 1.1183179907148506 79.2886010464452 29.30248310176315 1 0 1
8147 0 1 0 3.988849005779111 81.7848319609781 29.03356789213052 1 0 1
7908 0 1 0 1.0979463651637522 81.7817949358938 29.167325095853506 1 0 1
7924 0 1 0 5.457780208302143 91.71244977693365 28.746317195012598 1 -1 1
8383 0 1 0 8.163261386396316 79.32884308590428 29.001083721520086 1 0 1
8144 0 1 0 5.350126351750052 79.25623488069849 28.99089992252898 1 0 1
8381 0 1 0 6.101092173246555 80.51645925526903 28.94285590089542 1 0 1
8382 0 1 0 7.515340870071859 80.56536852119875 29.02224376612194 1 0 1
8148 0 1 0 5.431750269606584 81.76569190111913 28.957651968847852 1 0 1
8394 0 1 0 7.504105731114037 88.03928972288594 28.5061178423117 1 0 1
8387 0 1 0 8.235537606695637 81.81941238285158 28.886628107456197 1 0 1
8149 0 1 0 1.8047171747908097 85.45677344266188 28.72486784450627 1 0 1
8150 0 1 0 3.272103669214124 85.46794463968038 28.675074762156083 1 0 1
8151 0 1 0 3.9430772566496195 84.2599647978204 28.787102165017558 1 0 1
8146 0 1 0 3.226418422288103 82.97972135134019 28.960629539026904 1 0 1
8145 0 1 0 1.8286242772768535 82.99985748072608 29.016054411709597 1 0 1
7912 0 1 0 1.080370846902497 84.21808415971715 28.918617916428854 1 0 1
8155 0 1 0 3.930651783649871 86.73207967801703 28.690246252668995 1 0 1
7916 0 1 0 1.1098049929992568 86.68549424573979 28.695423764061786 1 0 1
8152 0 1 0 5.335700362374718 84.28031712945415 28.75756632153313 1 0 1
8399 0 1 0 8.229050365851883 89.25354314884176 28.593738128645878 1 0 1
8390 0 1 0 7.461750910157663 85.51920722149619 28.545310072362554 1 0 1
8385 0 1 0 6.078621792935925 83.0455484782637 28.7653388605967 1 0 1
8391 0 1 0 8.186711000467035 84.2632682417858 28.670923694358574 1 0 1
8386 0 1 0 7.493683357900878 83.04977886160847 28.805970976636072 1 0 1
8389 0 1 0 6.05971468554559 85.53329613263575 28.63655304328359 1 0 1
8163 0 1 0 8.245454382245486 91.74568420681017 28.733225187885566 1 -1 1
8395 0 1 0 8.140259696903486 86.73314305794544 28.650896834630387 1 0 1
8156 0 1 0 5.31622043892351 86.76246940300202 28.705625770458973 1 0 1
8159 0 1 0 3.947202977947662 89.22498755610732 28.721406903581755 1 0 1
8153 0 1 0 1.812585735024745 87.95593056752627 28.703433870409718 1 0 1
8154 0 1 0 3.238224483342876 87.97452045421873 28.812928553369915 1 0 1
7920 0 1 0 1.0800248752521924 89.22124955446921 28.781299794389742 1 0 1
8157 0 1 0 1.7828464073692918 90.44371533314916 28.760271928210837 1 0 1
8158 0 1 0 3.2638925981634586 90.45654666794724 28.782786107912028 1 0 1
7923 0 1 0 4.0116691336926 91.73256331278684 28.85005639246832 1 -1 1
7684 0 1 0 1.130765836952508 91.6792921054569 28.93105313712506 1 -1 1
8398 0 1 0 7.494096923685371 90.46664009897789 28.668309735711386 1 0 1
8393 0 1 0 6.04910457262994 88.00055788404853 28.664016429011475 1 0 1
8160 0 1 0 5.351123948197451 89.24352984003409 28.668107967112586 1 0 1
8396 0 1 0 9.571304511170519 86.76238138373228 28.644712797708134 1 0 1
8384 0 1 0 9.59260367030441 79.29785303722906 28.942460884962 1 0 1
7927 0 1 0 4.003959514020182 94.19078541637462 28.951273351637344 1 -1 1
7688 0 1 0 1.1407534810289626 94.18394658824282 28.956620567239113 1 -1 1
7922 0 1 0 3.301746898976167 92.96745813859113 29.035836905230344 1 -1 1
7921 0 1 0 1.8542253459184643 92.94286737703911 28.98432323998823 1 -1 1
7926 0 1 0 3.3301855592831333 95.411627980988 28.913687577526204 1 -1 1
7925 0 1 0 1.9232613011936563 95.42628549723464 28.89471896173014 1 -1 1
7692 0 1 0 1.1787735959014567 96.61709051830518 28.812667576562568 1 -1 1
7931 0 1 0 4.046694795747213 96.62525964681116 28.879274258078325 1 -1 1
7928 0 1 0 5.4601160914847 94.15534108919209 28.931665719564403 1 -1 1
7948 0 1 0 5.425729264487256 106.54967060511362 28.528517114901533 1 -1 1
8167 0 1 0 8.310981567764712 94.22958797423081 28.862474891323487 1 -1 1
8162 0 1 0 7.602482531490583 92.9789265043318 28.85409118595745 1 -1 1
8161 0 1 0 6.1974970164037755 92.95792541815051 28.830518765543506 1 -1 1
8166 0 1 0 7.584913814323619 95.45815383009672 28.859770593042406 1 -1 1
8165 0 1 0 6.16403987728573 95.44441785131059 29.007360321567177 1 -1 1
7932 0 1 0 5.4447331448909555 96.69460588375857 29.019592935146086 1 -1 1
7952 0 1 0 5.457816531409122 109.04658730350167 28.322925487831387 1 -1 1
8171 0 1 0 8.303535960760936 96.68414716769801 28.835704147281746 1 -1 1
7935 0 1 0 4.0432147034855745 99.16002303013703 28.712196486354358 1 -1 1
7696 0 1 0 1.1854601905903872 99.09607142722146 28.577079790262054 1 -1 1
7930 0 1 0 3.3472322834638395 97.84325219650185 28.705688078362595 1 -1 1
7929 0 1 0 1.8995652503244993 97.82512788131265 28.706241117086 1 -1 1
7934 0 1 0 3.320795693923065 100.36462449375215 28.590384804761943 1 -1 1
7933 0 1 0 1.906124031598284 100.31090357195573 28.51463887727684 1 -1 1
7936 0 1 0 5.4851171705418444 99.11513542543055 28.845564395583736 1 -1 1
8189 0 1 0 6.200364155456105 110.22430688578322 28.129307884596525 1 -1 1
8175 0 1 0 8.207119436754514 99.12333215597047 28.642562488536292 1 -1 1
8170 0 1 0 7.5708554825986045 97.89122006411512 28.89783783029754 1 -1 1
8169 0 1 0 6.159874681861899 97.92177184335375 28.94475467970492 1 -1 1
8174 0 1 0 7.532312922818701 100.36901637159049 28.625334695206174 1 -1 1
8173 0 1 0 6.154124719743226 100.3849031518857 28.712979610219794 1 -1 1
7939 0 1 0 4.029878088704452 101.5732099572924 28.642871282918016 1 -1 1
7938 0 1 0 3.292032462773661 102.78911609581067 28.62718165265274 1 -1 1
7943 0 1 0 4.001456018682617 104.04436496939381 28.585166495300296 1 -1 1
7937 0 1 0 1.853631884492661 102.80871248039621 28.68113483531809 1 -1 1
7700 0 1 0 1.1331525382115213 101.5318215287562 28.53118402617916 1 -1 1
7704 0 1 0 1.1379767745676819 104.06879942431011 28.712147393570042 1 -1 1
7942 0 1 0 3.3125731157316785 105.33380450036331 28.539110477956335 1 -1 1
7941 0 1 0 1.8571846224242319 105.30728721854953 28.585383786506178 1 -1 1
8182 0 1 0 7.584297404396644 105.35258536499627 28.44645573759114 1 -1 1
7940 0 1 0 5.440601706736279 101.58074005634731 28.68225195255387 1 -1 1
8186 0 1 0 7.626454809975489 107.77748061075592 28.24933994702751 1 -1 1
8187 0 1 0 8.301957893640653 106.54840222482501 28.32775710511183 1 -1 1
8179 0 1 0 8.23330811709319 101.56238699027017 28.462672730325558 1 -1 1
8183 0 1 0 8.26428584761508 104.05050433455519 28.346353947158423 1 -1 1
7944 0 1 0 5.410774151339367 104.10955841495456 28.612234660041757 1 -1 1
8178 0 1 0 7.571481289931678 102.7909793607178 28.452294417068234 1 -1 1
8177 0 1 0 6.09775560901905 102.82740691437166 28.621594101601133 1 -1 1
8181 0 1 0 6.171713098389808 105.3138572057151 28.54677491920323 1 -1 1
7951 0 1 0 4.009704335633904 108.99533502574197 28.432817675881967 1 -1 1
7947 0 1 0 4.000815439732879 106.55134146013556 28.502421949976092 1 -1 1
7946 0 1 0 3.2537756721141102 107.7728218465381 28.515248784517514 1 -1 1
7708 0 1 0 1.1664748266908131 106.53993859670854 28.49598240189815 1 -1 1
7945 0 1 0 1.9175588094863452 107.81138397708395 28.46161464411179 1 -1 1
7712 0 1 0 1.2140124825948952 109.03990958405696 28.399101414530662 1 -1 1
7950 0 1 0 3.363459239692954 110.24593857089903 28.425741891311205 1 -1 1
7949 0 1 0 1.9109107368606761 110.28718453490937 28.500025024894192 1 -1 1
8190 0 1 0 7.614707927511049 110.22552373685014 28.005709610441443 1 -1 1
8191 0 1 0 8.314022088784254 109.03029453459423 28.070407204454813 1 -1 1
8185 0 1 0 6.176798576452521 107.82048672313367 28.416862294827027 1 -1 1
7954 0 1 0 3.342042119217438 112.6796903501249 28.376894299696794 1 -1 1
7716 0 1 0 1.1584954794769087 111.5112812979387 28.51953093347532 1 -1 1
7955 0 1 0 4.060371663471338 111.46237733051683 28.33758961509799 1 -1 1
7953 0 1 0 1.8758268138235703 112.72841973391742 28.4716212423645 1 -1 1
7959 0 1 0 4.0344640307756965 113.95910278567202 28.158623870159758 1 -1 1
7720 0 1 0 1.1723320985078887 113.96886154647228 28.44555149133679 1 -1 1
7957 0 1 0 1.881806799727059 115.23430558620727 28.274316289337946 1 -1 1
7958 0 1 0 3.302200064155912 115.25569012570371 28.18867648927975 1 -1 1
7956 0 1 0 5.496646017664944 111.49345191656309 28.117727361897867 1 -1 1
8195 0 1 0 8.310820456489541 111.48173965867792 27.87468022171533 1 -1 1
8223 0 1 0 8.234154845641484 128.7462522428194 26.887935037215502 1 -1 1
8194 0 1 0 7.60325169519361 112.71107142579315 27.84564734639447 1 -1 1
8193 0 1 0 6.173753930837728 112.73411858175658 27.971041562183125 1 -1 1
7960 0 1 0 5.415934585248837 113.97253205095649 28.003719453222253 1 -1 1
7980 0 1 0 5.375359937152411 126.30409148627685 27.006896605421694 1 -1 1
8199 0 1 0 8.292790077227457 113.93146472019427 27.76978980313513 1 -1 1
8198 0 1 0 7.55078165970412 115.16332307231919 27.817615277794914 1 -1 1
8197 0 1 0 6.125938631228364 115.20030120510258 27.88357861156276 1 -1 1
7963 0 1 0 3.9849065307715983 116.46998564034857 27.94657331361528 1 -1 1
7961 0 1 0 1.82519069257465 117.66783025410551 27.84980268671677 1 -1 1
7962 0 1 0 3.258276691335975 117.7124548652426 27.887219384305666 1 -1 1
7724 0 1 0 1.1314676541881439 116.4010366891266 28.054262615824758 1 -1 1
7967 0 1 0 4.0249490389149285 118.9089065850667 27.701673811768465 1 -1 1
7728 0 1 0 1.1496383360038525 118.85677767857493 27.650684623951907 1 -1 1
7964 0 1 0 5.4016422135476985 116.39791781441828 27.82203810301888 1 -1 1
8218 0 1 0 7.517705193243547 127.55987213363906 26.898034727475864 1 -1 1