LAMMPS data file via write_data, version 4 Feb 2025, timestep = 80000, units = metal

11640 atoms
3 atom types

0 157.08816 xlo xhi
0 151.158152437505 ylo yhi
0 151.07316997686289 zlo zhi

Masses

1 12.01099999691024
2 1.007999999740698
3 15.99899999588435

Atoms # full

4964 0 1 0 5.320044319629255 5.791915614924876 21.479941253053358 1 2 0
4963 0 1 0 3.917367844898675 5.776850504384975 21.468065648380495 1 2 0
4959 0 1 0 3.8693968531140572 3.2960057040946933 21.471357783802343 1 2 0
4958 0 1 0 3.154188451011649 4.517732107005457 21.438161418465928 1 2 0
4957 0 1 0 1.6880844040349 4.525766214006998 21.348788902381095 1 2 0
5203 0 1 0 8.215709654232004 5.7765800653185835 21.435486983359286 1 2 0
5198 0 1 0 7.502527483847398 4.568410584523132 21.42025511586229 1 2 0
4960 0 1 0 5.379536697366999 3.3014619296769396 21.514408230045937 1 2 0
5199 0 1 0 8.211555576871623 3.2488263603499936 21.387796669926246 1 2 0
5197 0 1 0 6.099163412220563 4.5464864519017345 21.518745558043502 1 2 0
5204 0 1 0 9.67842441311974 5.781262063864756 21.43406278632624 1 2 0
5443 0 1 0 12.59127564808947 5.787307244366345 21.45505416710149 1 2 0
5200 0 1 0 9.66902121431996 3.254232206737985 21.318187461168066 1 2 0
5439 0 1 0 12.604542331384735 3.268155260563536 21.341903709913364 1 2 0
5437 0 1 0 10.410964840408003 4.489659304942028 21.346623884139255 1 2 0
5438 0 1 0 11.884453977430375 4.493837809047592 21.349911789773106 1 2 0
4966 0 1 0 3.0685016957296534 9.52650021383663 21.59107363501989 1 2 0
4967 0 1 0 3.832600191143448 8.30320447269951 21.50312300930911 1 2 0
4962 0 1 0 3.1441874238194103 7.036863925232497 21.490092856443685 1 2 0
4961 0 1 0 1.6818153669362612 7.030503450028284 21.303873224466187 1 2 0
4971 0 1 0 3.8187933354070465 10.78892496210587 21.659427928728164 1 2 0
4965 0 1 0 1.6436533999937957 9.546734466450634 21.445598536311213 1 2 0
5205 0 1 0 6.027802357849391 9.535280597570985 21.656644930058345 1 2 0
4968 0 1 0 5.322815263574436 8.303857070154342 21.59900802813031 1 2 0
5201 0 1 0 6.072567543288616 7.041043835533112 21.474023837630472 1 2 0
5206 0 1 0 7.454483835790803 9.51088418102612 21.523363857494576 1 2 0
5207 0 1 0 8.221771065533268 8.277174089964777 21.48243130052213 1 2 0
5202 0 1 0 7.512860933221726 7.019791958057614 21.430066118511984 1 2 0
4972 0 1 0 5.27161186059099 10.803607713186992 21.726121695871434 1 2 0
5211 0 1 0 8.162389343072894 10.741939876556895 21.45416315602613 1 2 0
5445 0 1 0 10.367791513809406 9.555776457821139 21.503108597249724 1 2 0
5208 0 1 0 9.627424625200568 8.317740466463468 21.514737449255602 1 2 0
5441 0 1 0 10.374551655326568 7.047613266446889 21.44190845672162 1 2 0
5446 0 1 0 11.837290805148712 9.559949114360341 21.522538640986095 1 2 0
5447 0 1 0 12.522247483595677 8.305764055653423 21.444958398092986 1 2 0
5442 0 1 0 11.79404747899959 7.057081005901166 21.437286689964534 1 2 0
5212 0 1 0 9.614012518884536 10.79291828736134 21.346944321956546 1 2 0
5451 0 1 0 12.531383546142358 10.837095844463503 21.47245998670749 1 2 0
4970 0 1 0 3.076781739974315 12.015332762142561 21.56654540819598 1 2 0
5434 0 1 0 11.902579030103077 2.000971801291271 21.365698231058573 1 2 0
4969 0 1 0 1.6662221792040406 12.009600421350418 21.46088793238772 1 2 0
4720 0 1 0 1.0115024267525057 3.2681769968268264 21.379562596345227 1 2 0
4724 0 1 0 0.9432143352758153 5.7803354881995075 21.265863909385327 1 2 0
5209 0 1 0 5.983933366124137 12.023711693707567 21.557885644579127 1 2 0
5195 0 1 0 8.280531335379788 0.6952008460734286 21.41251674689464 1 2 0
5210 0 1 0 7.436536094213106 12.049755798260104 21.483206148232195 1 2 0
5196 0 1 0 9.743921674566247 0.7136789442817493 21.384076808708777 1 2 0
4954 0 1 0 3.2328113211925182 1.9705102132934784 21.3581488183353 1 2 0
4732 0 1 0 0.9300357404002296 10.774460307929324 21.357911832570874 1 2 0
5449 0 1 0 10.367569089490576 12.07012221890336 21.444082052449822 1 2 0
5433 0 1 0 10.46325160562472 1.9908143526999444 21.399419387767065 1 2 0
5450 0 1 0 11.833071904955485 12.085858269988025 21.37000549050363 1 2 0
4953 0 1 0 1.760860110057938 1.9440301789378012 21.29474677711531 1 2 0
5194 0 1 0 7.4847050286705175 1.9877222326838533 21.44942577993969 1 2 0
5193 0 1 0 6.11093083051384 2.0065402583222514 21.47860131172627 1 2 0
4728 0 1 0 0.931754620723277 8.2683753662908 21.300629970888977 1 2 0
4716 0 1 0 1.0420896344232986 0.7107701969736698 21.274095978810834 1 2 0
5435 0 1 0 12.622359516896385 0.7577453472853672 21.352871032228993 1 2 0
4956 0 1 0 5.400849940699476 0.7376580905821396 21.395104069571687 1 2 0
4955 0 1 0 3.941856084359549 0.7128528094949368 21.422404656795 1 2 0
4983 0 1 0 3.8316380883150845 18.291978542167517 21.49683622603066 1 2 0
4979 0 1 0 3.852361012474318 15.799650207034572 21.565399593870243 1 2 0
4980 0 1 0 5.257679841650556 15.819045613739037 21.560604469166343 1 2 0
4978 0 1 0 3.100177195862904 17.021484430866902 21.560245453876785 1 2 0
4977 0 1 0 1.6504843473941424 17.008021027709397 21.494369105600573 1 2 0
4744 0 1 0 0.8900439824508054 18.249521458594703 21.489339652730184 1 2 0
4984 0 1 0 5.3085236832137594 18.316852489955455 21.518093940958757 1 2 0
5224 0 1 0 9.645832264815484 18.32743722873074 21.499302644335472 1 2 0
5223 0 1 0 8.20632531906324 18.332565513340757 21.49863171724461 1 2 0
5220 0 1 0 9.672483920272018 15.903455272550698 21.37103964353432 1 2 0
5218 0 1 0 7.475116631087871 17.039390669572573 21.528968925569032 1 2 0
5217 0 1 0 6.01063004845054 17.050288265097127 21.495148270420817 1 2 0
5219 0 1 0 8.19682652624386 15.80175971125129 21.478009034393065 1 2 0
5463 0 1 0 12.583111314704137 18.398778171507722 21.408597710469884 1 2 0
5214 0 1 0 7.483023566381827 14.564686922583473 21.499567770086653 1 2 0
5459 0 1 0 12.543439286501238 15.896561766033999 21.29288267957021 1 2 0
5458 0 1 0 11.82775455076635 17.13044118146268 21.324637741875392 1 2 0
5457 0 1 0 10.397832268607166 17.127159388401097 21.407060741256878 1 2 0
4986 0 1 0 3.1527483765013304 22.074147681029345 21.59872365873334 1 2 0
4987 0 1 0 3.8217950929696927 20.782037936402833 21.531597527642663 1 2 0
4988 0 1 0 5.285978069666399 20.788493605316695 21.597539145857667 1 2 0
4982 0 1 0 3.0867273507845687 19.548944612098502 21.55907926781284 1 2 0
4981 0 1 0 1.652223315432017 19.518473453886823 21.489792740416267 1 2 0
4991 0 1 0 3.839145210497521 23.30192558103113 21.495013531147805 1 2 0
4985 0 1 0 1.71812916290818 22.057631686789932 21.57333616195617 1 2 0
4748 0 1 0 0.9682087144997412 20.821309868699576 21.484374244178394 1 2 0
5225 0 1 0 6.03391629808735 22.012186565974353 21.513616435929148 1 2 0
5221 0 1 0 6.009908380622978 19.57636080495193 21.571863687908383 1 2 0
5227 0 1 0 8.227621909426816 20.851455045913912 21.486004936704642 1 2 0
5226 0 1 0 7.571417361495338 22.153773475752356 21.535958700334035 1 2 0
5222 0 1 0 7.478182512054859 19.617948020644658 21.564787908527133 1 2 0
4992 0 1 0 5.328370606301032 23.303452223073712 21.46704253956416 1 2 0
5231 0 1 0 8.301694127885366 23.37879356702957 21.475522675689273 1 2 0
5232 0 1 0 9.736275476587492 23.39163541892203 21.49266193545211 1 2 0
5228 0 1 0 9.701139627976975 20.904501478450083 21.50324871826093 1 2 0
5465 0 1 0 10.490061371278156 22.15463278224951 21.512898552742868 1 2 0
5461 0 1 0 10.368671588823943 19.63105191472757 21.47325883125694 1 2 0
5467 0 1 0 12.541995167999332 20.90219150266149 21.501323905774324 1 2 0
5466 0 1 0 11.90059047648801 22.167314500868997 21.61892155365648 1 2 0
5462 0 1 0 11.828272651575773 19.62371529468368 21.40460420646571 1 2 0
5471 0 1 0 12.640095183871079 23.41716709473338 21.541854056231262 1 2 0
5455 0 1 0 12.531311424565265 13.3534518621566 21.259672959801616 1 2 0
5213 0 1 0 5.976993171959517 14.55305935904805 21.56162449155845 1 2 0
4990 0 1 0 3.145528639705141 24.574091614685837 21.547253351433625 1 2 0
4736 0 1 0 0.8743742016820033 13.303803900541512 21.340153707950392 1 2 0
4989 0 1 0 1.6477203172423298 24.57741363355118 21.580989658881037 1 2 0
4974 0 1 0 3.076920310732563 14.544755346704312 21.550689793755563 1 2 0
5229 0 1 0 6.060879960781855 24.550713279518583 21.456991528823103 1 2 0
5454 0 1 0 11.803022953386607 14.638195047784587 21.345089605541528 1 2 0
5230 0 1 0 7.495659179842842 24.609349894929025 21.4332740407766 1 2 0
5453 0 1 0 10.363819097745369 14.61544086051915 21.348118616167078 1 2 0
4740 0 1 0 0.8864070148969573 15.802008602288227 21.444400310796055 1 2 0
4973 0 1 0 1.642086690445431 14.55471337078572 21.436166231731427 1 2 0
4752 0 1 0 0.9812473312064782 23.319152454594978 21.621582091399183 1 2 0
5469 0 1 0 10.449050664539026 24.61950087611216 21.47190248334238 1 2 0
5470 0 1 0 11.922753577330624 24.682461095767085 21.55605996788795 1 2 0
5216 0 1 0 9.673392393896458 13.334995702536562 21.40639297044252 1 2 0
4976 0 1 0 5.243064402748026 13.312615762446033 21.59146341668001 1 2 0
5215 0 1 0 8.189193029268766 13.28473523554552 21.452698966630212 1 2 0
4975 0 1 0 3.786445991300172 13.309722488325825 21.635151994641586 1 2 0
5003 0 1 0 3.8294396403750603 30.851074704038677 21.671490477776235 1 2 0
4999 0 1 0 3.8763638313070556 28.336581965209703 21.61858076075855 1 2 0
4997 0 1 0 1.6358113125554299 29.66650750802403 21.58305671200139 1 2 0
4998 0 1 0 3.1347630640762096 29.618800083022233 21.656402455364738 1 2 0
4760 0 1 0 1.0238490340385924 28.43988706056381 21.508797264655996 1 2 0
4764 0 1 0 0.940102016993015 30.934341874406986 21.5843119671435 1 2 0
5004 0 1 0 5.276036207509191 30.897165656763004 21.78052575636894 1 2 0
5243 0 1 0 8.236107138707148 30.92121047271308 21.917650200674757 1 2 0
5000 0 1 0 5.326854235825135 28.321726130359593 21.628641721985243 1 2 0
5239 0 1 0 8.221955078791753 28.38723328860484 21.735480171646625 1 2 0
5237 0 1 0 6.047428773048995 29.607182898424135 21.711908259913685 1 2 0
5238 0 1 0 7.511724319241415 29.660463736079333 21.85135136482755 1 2 0
5244 0 1 0 9.70547870358825 30.917296151922066 21.870800945142026 1 2 0
5477 0 1 0 10.411795221309049 29.636645010194606 21.82475050193466 1 2 0
5483 0 1 0 12.58521704111684 30.92906813788738 21.56588317117568 1 2 0
5479 0 1 0 12.60034762367239 28.403701497842103 21.576866488029193 1 2 0
5240 0 1 0 9.695643336946125 28.37376105886012 21.745608407383802 1 2 0
5478 0 1 0 11.834289565720265 29.68052025998186 21.66346108726968 1 2 0
5007 0 1 0 3.871117668042293 33.40725140440579 21.69750372792003 1 2 0
5006 0 1 0 3.1295695335471465 34.69002025692518 21.68438319374836 1 2 0
5002 0 1 0 3.1260340124413815 32.108895397576184 21.73577465283742 1 2 0
5011 0 1 0 3.8456517183529377 35.930602903243596 21.717434146885477 1 2 0
5005 0 1 0 1.6742839854032474 34.675071628989315 21.64802381745048 1 2 0
5001 0 1 0 1.6778513958908985 32.17234113603832 21.60121762548823 1 2 0
4768 0 1 0 0.9484028806682018 33.4110895603738 21.61865605045315 1 2 0
4772 0 1 0 0.9631371122301611 35.92194509724733 21.72771793667444 1 2 0
5245 0 1 0 6.039776592295463 34.714117567804436 21.745261534511727 1 2 0
5008 0 1 0 5.304419239915134 33.47185688934637 21.772271523338173 1 2 0
5241 0 1 0 6.003420449188784 32.13633769972403 21.84890752943928 1 2 0
5246 0 1 0 7.51904024422597 34.68678539172355 21.76765697139311 1 2 0
5247 0 1 0 8.232363390127626 33.41570049309588 21.783140964369103 1 2 0
5242 0 1 0 7.497509367898227 32.16522798040969 21.878818384837476 1 2 0
5012 0 1 0 5.3001804383085 35.97997101337168 21.802668722729205 1 2 0
5251 0 1 0 8.251960190541814 35.912959282115615 21.749682379516617 1 2 0
5248 0 1 0 9.729453022447997 33.416466095908014 21.728789631453893 1 2 0
5485 0 1 0 10.491489229030549 34.6536728425966 21.608559015383282 1 2 0
5481 0 1 0 10.378089514298377 32.17609105572468 21.71460012990247 1 2 0
5486 0 1 0 11.924206692959528 34.71871818125033 21.50013507783438 1 2 0
5487 0 1 0 12.632001286043119 33.45119052679567 21.430347371767517 1 2 0
5482 0 1 0 11.847108132067275 32.20968074664889 21.572780642719724 1 2 0
5252 0 1 0 9.684651946768087 35.904733263109314 21.665780718103647 1 2 0
5491 0 1 0 12.622802013708286 35.990314193909555 21.423834596504797 1 2 0
5473 0 1 0 10.397625355335878 27.159719594226818 21.563050479737136 1 2 0
5010 0 1 0 3.1176828694101513 37.17686041715247 21.712191641918118 1 2 0
5234 0 1 0 7.521609978752755 27.16489787175855 21.629007751745622 1 2 0
5490 0 1 0 11.867005309259469 37.16358341986803 21.550652174712678 1 2 0
5009 0 1 0 1.655928755180158 37.21115493976804 21.674187577570187 1 2 0
5233 0 1 0 6.026796483536798 27.0787980562861 21.516005828814684 1 2 0
5249 0 1 0 6.051182798671085 37.22924930807403 21.712722017310856 1 2 0
4994 0 1 0 3.1779753159867488 27.082711189922808 21.577875838262738 1 2 0
5250 0 1 0 7.518301233449189 37.20892132376114 21.739772137739198 1 2 0
4993 0 1 0 1.725493858717777 27.117252991036526 21.495613258819738 1 2 0
5474 0 1 0 11.87261384374921 27.172717245363817 21.489476778392397 1 2 0
5489 0 1 0 10.386030093048076 37.19784835704796 21.584736730742584 1 2 0
5475 0 1 0 12.612595941692678 25.922701749332944 21.502181416381543 1 2 0
4756 0 1 0 0.9251153394974015 25.88130225659415 21.54040076157784 1 2 0
4995 0 1 0 3.8751466847260185 25.79452343514869 21.52888483329015 1 2 0
4996 0 1 0 5.317352565186125 25.829706294131373 21.405014073260116 1 2 0
5236 0 1 0 9.685824389509575 25.86302399772291 21.44114253280649 1 2 0
5235 0 1 0 8.235429275686844 25.878708126448 21.548520860645255 1 2 0
5023 0 1 0 3.85022276349425 43.44898596504638 21.573552483097366 1 2 0
5019 0 1 0 3.8707120520627383 40.97679165444844 21.673803256404955 1 2 0
5018 0 1 0 3.116315940821749 42.234385298431825 21.66511280227339 1 2 0
5017 0 1 0 1.666668492432037 42.18661466462278 21.67975662297337 1 2 0
4784 0 1 0 0.9965431121519274 43.48571497223935 21.573001370974655 1 2 0
4780 0 1 0 0.9349176767050024 40.981170581167234 21.690580154535592 1 2 0
5024 0 1 0 5.354711585274883 43.47917331147291 21.503813903278687 1 2 0
5263 0 1 0 8.253731374140536 43.47441713168804 21.45514328484232 1 2 0
5020 0 1 0 5.338727003834217 40.94537135680918 21.641776925927502 1 2 0
5259 0 1 0 8.215530038697137 40.9493402642593 21.569999284852063 1 2 0
5258 0 1 0 7.4675964181959005 42.19106942956438 21.483638227114337 1 2 0
5257 0 1 0 6.045605958706489 42.22358280280718 21.47047679538694 1 2 0
5264 0 1 0 9.700708986743042 43.45623219641357 21.40420468246097 1 2 0
5503 0 1 0 12.591553693650745 43.53750833985125 21.401207871101573 1 2 0
5497 0 1 0 10.416876605919496 42.225984947583925 21.559848218868854 1 2 0
5260 0 1 0 9.694945125881544 40.942718923328584 21.581663649879733 1 2 0
5499 0 1 0 12.587377407141897 40.989562235467815 21.571469010382245 1 2 0
5498 0 1 0 11.931130131465709 42.23833468441188 21.540812876042875 1 2 0
5026 0 1 0 3.183210499077031 47.33071155115781 21.710309604174792 1 2 0
5027 0 1 0 3.8824349005774352 46.0858602278069 21.72626050230243 1 2 0
5022 0 1 0 3.1862775459273722 44.78732729748138 21.644561561255866 1 2 0
5025 0 1 0 1.7295495151376659 47.31523070738304 21.70607124756998 1 2 0
5031 0 1 0 3.886721643082044 48.58031074411725 21.67191261809718 1 2 0
5021 0 1 0 1.7060068476689985 44.77980027698436 21.512253845354678 1 2 0
4788 0 1 0 0.9468855876428529 46.07560108324341 21.611977178821927 1 2 0
4792 0 1 0 0.98675714200233 48.56085221238683 21.739191637381495 1 2 0
5265 0 1 0 6.0467552762485015 47.348578889540015 21.69395106103031 1 2 0
5028 0 1 0 5.345848921699461 46.04429526658455 21.761449201746267 1 2 0
5261 0 1 0 6.036822118302271 44.75477778458714 21.558825716110167 1 2 0
5267 0 1 0 8.20694469763807 46.01259880377668 21.63972862394679 1 2 0
5262 0 1 0 7.5001633727318495 44.72794101151015 21.542528275335357 1 2 0
5032 0 1 0 5.306260477706877 48.58507825512679 21.66068627217681 1 2 0
5271 0 1 0 8.211544858324231 48.573039026798966 21.66367773220113 1 2 0
5266 0 1 0 7.4789158276486125 47.29521439721897 21.675111512454674 1 2 0
5268 0 1 0 9.66798747939924 46.02087606587146 21.546950845231873 1 2 0
5505 0 1 0 10.38712383323822 47.30601095866316 21.493357174166366 1 2 0
5501 0 1 0 10.38738199722578 44.76763081335461 21.537534972844426 1 2 0
5507 0 1 0 12.60121382070959 46.10840839183426 21.462867933082528 1 2 0
5506 0 1 0 11.83549207038587 47.31533417486943 21.535580207531545 1 2 0
5502 0 1 0 11.848198979117628 44.828169432273945 21.45337298877166 1 2 0
5272 0 1 0 9.618166882092495 48.58732803402757 21.612237426980254 1 2 0
5511 0 1 0 12.554792413150002 48.58690902897156 21.533841448642335 1 2 0
5029 0 1 0 1.704635526763307 49.81254162786239 21.651372441423053 1 2 0
5030 0 1 0 3.1498193519416477 49.83757115530989 21.662332560076248 1 2 0
5255 0 1 0 8.245658088668838 38.43160553586736 21.654130487052036 1 2 0
5016 0 1 0 5.296101636604724 38.43615283315015 21.722010229375773 1 2 0
5254 0 1 0 7.45657047687976 39.68131732050461 21.60090556681836 1 2 0
5015 0 1 0 3.8523976446868575 38.44771545294129 21.808839797390632 1 2 0
5269 0 1 0 6.008076662081474 49.81553865953295 21.69543118918229 1 2 0
5256 0 1 0 9.6824336900974 38.4372240664681 21.64271840809206 1 2 0
5270 0 1 0 7.490379771099933 49.84481279610026 21.647750393746026 1 2 0
5495 0 1 0 12.606706338115039 38.47704709558589 21.50551178571316 1 2 0
5014 0 1 0 3.131196855971703 39.75317480686524 21.782500122336867 1 2 0
5510 0 1 0 11.81744693108319 49.84043714149156 21.614204634933174 1 2 0
5509 0 1 0 10.378519421357984 49.86248276286163 21.57391908021642 1 2 0
5253 0 1 0 5.9838080653475725 39.67978094267033 21.577930772600865 1 2 0
5013 0 1 0 1.6259062802728705 39.68688524864135 21.78799659021541 1 2 0
5494 0 1 0 11.870647769270331 39.738407186959336 21.615599152383794 1 2 0
5493 0 1 0 10.44825288582813 39.737605905949344 21.65490063592678 1 2 0
4776 0 1 0 0.932621433784783 38.46000715054072 21.756073631118724 1 2 0
4803 0 1 0 3.8173762742728905 56.12580368838859 21.5883695394257 1 1 0
4564 0 1 0 0.9349048816226632 56.090299152410715 21.561233619219536 1 1 0
5039 0 1 0 3.8227776247232947 53.564358644731584 21.71184888354754 1 2 0
5038 0 1 0 3.0999219546581886 54.83161048186574 21.62363564540104 1 2 0
5037 0 1 0 1.6261126342941703 54.83900121044527 21.556499625037844 1 2 0
4800 0 1 0 0.9099944270926222 53.547463458332 21.524604926292962 1 2 0
4804 0 1 0 5.316870883637281 56.10617682946079 21.591412788787384 1 1 0
5043 0 1 0 8.187849576801929 56.110749695000166 21.666899849538403 1 1 0
5040 0 1 0 5.252120048451696 53.58729992947642 21.756519091921756 1 2 0
5278 0 1 0 7.449168594777437 54.82276676517275 21.682554816926963 1 2 0
5277 0 1 0 5.973862191571942 54.84958976102236 21.66592152628115 1 2 0
5279 0 1 0 8.179055364780245 53.56731930820937 21.70378818252784 1 2 0
5044 0 1 0 9.65967551445259 56.13356428492031 21.629435716421796 1 1 0
5283 0 1 0 12.566488311599292 56.16813001132707 21.573422607621875 1 1 0
5519 0 1 0 12.563177931801295 53.62412760236921 21.65374959279144 1 2 0
5280 0 1 0 9.653696541968777 53.679262020270755 21.65884293401009 1 2 0
5518 0 1 0 11.840460381423414 54.88875891165124 21.61177701276257 1 2 0
5517 0 1 0 10.400516854896585 54.887671046220106 21.668510654238784 1 2 0
4806 0 1 0 3.0878445471834772 59.857806701536596 21.46501341467334 1 1 0
4807 0 1 0 3.836045931528406 58.597744035039746 21.58811842488376 1 1 0
4802 0 1 0 3.101001999647041 57.37916233159908 21.54327312574392 1 1 0
4811 0 1 0 3.859101631394983 61.111271145840234 21.49344346547517 1 1 0
4805 0 1 0 1.6434979550258306 59.84948479479298 21.409294379949028 1 1 0
4801 0 1 0 1.6693119832783014 57.37009332646444 21.594647340053946 1 1 0
4568 0 1 0 0.9120550075001957 58.6067000153908 21.48729912752055 1 1 0
4572 0 1 0 0.9518589598673826 61.132031007956265 21.456531310088646 1 1 0
5045 0 1 0 6.014092554753082 59.872131551656025 21.611820376175743 1 1 0
4808 0 1 0 5.27827941114603 58.61399307793836 21.66218472490227 1 1 0
5041 0 1 0 6.029393396528433 57.405844760465044 21.643089842553163 1 1 0
5046 0 1 0 7.455998159594613 59.880590622596465 21.57153850232251 1 1 0
5047 0 1 0 8.200756593789286 58.673447831633496 21.589734762443253 1 1 0
5042 0 1 0 7.4873747673044795 57.39486509235661 21.632531085534147 1 1 0
4812 0 1 0 5.302659375862871 61.085521494870015 21.583861676798055 1 1 0
5051 0 1 0 8.191076138775637 61.12016525854954 21.60050590609491 1 1 0
5052 0 1 0 9.667764408518007 61.12878276540079 21.609854409752547 1 1 0
5048 0 1 0 9.672786635003233 58.66400428586341 21.667283405728156 1 1 0
5281 0 1 0 10.416116220277848 57.421790646188825 21.600108971248975 1 1 0
5287 0 1 0 12.617341081533194 58.693114437566386 21.722583791469745 1 1 0
5282 0 1 0 11.873361258541303 57.40562866561526 21.58902759245165 1 1 0
5285 0 1 0 10.412136350328373 59.930001479300344 21.600451198873714 1 1 0
5291 0 1 0 12.575192580741948 61.21957589058739 21.64785187003466 1 1 0
5286 0 1 0 11.883371997917092 59.91187199638424 21.647091161003246 1 1 0
4810 0 1 0 3.0791266762087965 62.37243320663925 21.51145285391497 1 1 0
5033 0 1 0 1.6895736162544777 52.30989088719116 21.65648409584893 1 2 0
5289 0 1 0 10.398256057558479 62.437877822998225 21.618866298925468 1 1 0
5290 0 1 0 11.860670663754298 62.4535647676406 21.62538635589986 1 1 0
4809 0 1 0 1.6634117565908624 62.37960173957797 21.394765774490878 1 1 0
5514 0 1 0 11.826521224393515 52.410496190297025 21.599731307110183 1 2 0
5049 0 1 0 6.002268739148436 62.36951570585472 21.602346252127102 1 1 0
5034 0 1 0 3.094138238785897 52.34909657782563 21.697396231868815 1 2 0
5050 0 1 0 7.466707101726698 62.36620379700828 21.555663174256335 1 1 0
5273 0 1 0 5.999923852909342 52.32821577176972 21.771213413124016 1 2 0
5274 0 1 0 7.437919940070206 52.311069490215424 21.71755535108423 1 2 0
5513 0 1 0 10.402967739233747 52.372326982372854 21.575162476859425 1 2 0
5035 0 1 0 3.8475843927964704 51.066483819897925 21.66831352066575 1 2 0
5276 0 1 0 9.692456759535748 51.0921883559035 21.561173366894913 1 2 0
4796 0 1 0 0.9789305169529676 51.06625992737414 21.58233450753139 1 2 0
5275 0 1 0 8.204143163094715 51.0896926273101 21.612696446071112 1 2 0
5515 0 1 0 12.543732251584998 51.09978832452081 21.607898612305515 1 2 0
5036 0 1 0 5.289192098090891 51.06642250591058 21.740586024706637 1 2 0
4823 0 1 0 3.8806908221443384 68.6612614355702 21.498980327219986 1 1 0
4817 0 1 0 1.7266847635394043 67.40268590212763 21.569603390411626 1 1 0
4819 0 1 0 3.88111019362131 66.12909556821882 21.566993848320262 1 1 0
4818 0 1 0 3.155637982850693 67.39329646900292 21.53941552161107 1 1 0
4584 0 1 0 0.9393387088748738 68.67223473476594 21.441016332681826 1 1 0
4580 0 1 0 0.9852520149225397 66.138943130898 21.498485292859918 1 1 0
4824 0 1 0 5.319424317878588 68.68302934692711 21.44056863397814 1 1 0
5063 0 1 0 8.22486668803473 68.70226132343447 21.48476725860749 1 1 0
5059 0 1 0 8.234246244212251 66.13516923884993 21.49309826550917 1 1 0
4820 0 1 0 5.293865561304109 66.10708458994964 21.36996031114329 1 1 0
5058 0 1 0 7.5148427827252355 67.38610174385082 21.425798104985354 1 1 0
5057 0 1 0 6.045982999030292 67.3898561071718 21.366878019940522 1 1 0
5064 0 1 0 9.649644502975008 68.67475069556495 21.587566872683542 1 1 0
5303 0 1 0 12.609283756260703 68.70580457081324 21.386073400068035 1 1 0
5297 0 1 0 10.394492647453577 67.4365728330102 21.607854754439316 1 1 0
5060 0 1 0 9.697712183194215 66.20064291561587 21.646584987781765 1 1 0
5299 0 1 0 12.597466570286148 66.25088143560187 21.459278212334578 1 1 0
5298 0 1 0 11.881200697100313 67.46692521662004 21.435810401574454 1 1 0
4826 0 1 0 3.0844424715588747 72.45828380139497 21.47346848325598 1 1 0
4827 0 1 0 3.8239526358695892 71.20714037549472 21.508690029763468 1 1 0
4822 0 1 0 3.1421922490236165 69.9011617177519 21.450323119563585 1 1 0
4821 0 1 0 1.6859730903499428 69.90578784268925 21.401685783720115 1 1 0
4831 0 1 0 3.8406906778072094 73.72241475402203 21.514376180812775 1 1 0
4825 0 1 0 1.6430473508263286 72.4753133747396 21.479677958493685 1 1 0
4588 0 1 0 0.9745375969046066 71.20739633560893 21.392940814430034 1 1 0
4592 0 1 0 0.9576432939352343 73.77399944193216 21.53854831247755 1 1 0
4828 0 1 0 5.270923797893289 71.15982660125091 21.615680777519454 1 1 0
5065 0 1 0 6.030815753253818 72.41176506654635 21.648373246763192 1 1 0
5061 0 1 0 6.0456526381172635 69.94134059863215 21.522944599027767 1 1 0
5066 0 1 0 7.497399347617703 72.43840899432772 21.64431287386835 1 1 0
5067 0 1 0 8.286391903216774 71.21335395406295 21.539309264369933 1 1 0
5062 0 1 0 7.536971964058228 69.94179184018796 21.472439705245353 1 1 0
4832 0 1 0 5.290262337207149 73.70039293050174 21.67338562392293 1 1 0
5071 0 1 0 8.22725826939766 73.7031155067766 21.755583138022217 1 1 0
5068 0 1 0 9.669854785941755 71.1955542374998 21.58584581225377 1 1 0
5305 0 1 0 10.397398484043729 72.48112573288466 21.559355803629323 1 1 0
5301 0 1 0 10.405897494790837 69.92659712465438 21.551822781002027 1 1 0
5306 0 1 0 11.86316983003149 72.49595602926756 21.519326000345558 1 1 0
5307 0 1 0 12.557545351720936 71.22093489550907 21.35611548621343 1 1 0
5302 0 1 0 11.838503895651579 69.93551498121565 21.411874567764087 1 1 0
5072 0 1 0 9.693793835098543 73.73514007180054 21.74557158825762 1 1 0
5311 0 1 0 12.60337477328518 73.74335144091758 21.530397940612097 1 1 0
4816 0 1 0 5.281758167086754 63.65024699509486 21.526097669608305 1 1 0
4830 0 1 0 3.134963422364141 74.96925350006806 21.559494097869106 1 1 0
5293 0 1 0 10.463044681267448 64.93776736325844 21.661954431406347 1 1 0
4813 0 1 0 1.683231486292619 64.91417473418318 21.571078029085136 1 1 0
5053 0 1 0 6.021948400358984 64.85177071800695 21.464116024159132 1 1 0
4829 0 1 0 1.6716372912546158 74.96666884299714 21.60543337365305 1 1 0
5069 0 1 0 6.060063848048011 74.90152466408269 21.737951026061413 1 1 0
5294 0 1 0 11.907724482972611 64.99496076585845 21.550751694874663 1 1 0
5070 0 1 0 7.489553675962627 74.94253547453495 21.726080841634108 1 1 0
4814 0 1 0 3.1059623682822934 64.91016130528723 21.60800822748508 1 1 0
5054 0 1 0 7.550999604692842 64.86135569287971 21.582318964141635 1 1 0
5055 0 1 0 8.225751370486202 63.63523292269267 21.52957275167934 1 1 0
5309 0 1 0 10.39153658046819 74.9656043311379 21.689896142579453 1 1 0
5310 0 1 0 11.849275136415722 74.95737200332977 21.584128667710974 1 1 0
4576 0 1 0 0.936944947484247 63.66648299988079 21.4869692127323 1 1 0
4815 0 1 0 3.8324139592020576 63.659395922120574 21.631511923933534 1 1 0
5295 0 1 0 12.629891648745897 63.7197672200932 21.51407406594563 1 1 0
5056 0 1 0 9.714075202363457 63.71417212806765 21.633223249961812 1 1 0
4843 0 1 0 3.862937404747188 81.27610014697083 21.770595584885513 1 1 0
4839 0 1 0 3.8945791990918273 78.75885798492556 21.755072746400625 1 1 0
4837 0 1 0 1.7022166052440497 80.00180359149162 21.69835914605301 1 1 0
4838 0 1 0 3.1479433773614143 80.01387749782197 21.7465115479742 1 1 0
4600 0 1 0 0.9821885334746402 78.74187291017843 21.770785267204502 1 1 0
4604 0 1 0 0.9733917518033885 81.26704622876854 21.644888733479423 1 1 0
4844 0 1 0 5.278436167921021 81.16582655609729 21.645905300669828 1 1 0
5083 0 1 0 8.218475563028091 81.23336354564618 21.591880652756455 1 1 0
5079 0 1 0 8.211941178387011 78.73807051414813 21.68846852542742 1 1 0
4840 0 1 0 5.333921995838756 78.74784126666702 21.753617710488275 1 1 0
5077 0 1 0 6.072151557034379 79.9773524734497 21.580595745971525 1 1 0
5078 0 1 0 7.489508336537434 80.03335547196725 21.614137263152806 1 1 0
5084 0 1 0 9.72489993607564 81.26005525652931 21.51041328055298 1 1 0
5323 0 1 0 12.59450267748604 81.29580103429556 21.384524112636285 1 1 0
5319 0 1 0 12.602963063035599 78.73802305360914 21.53581560779349 1 1 0
5080 0 1 0 9.68358468958216 78.7543934704706 21.640893291689736 1 1 0
5317 0 1 0 10.424335201815834 80.01912994488214 21.57292326514024 1 1 0
5318 0 1 0 11.895838926681774 80.01876044699345 21.417455252749253 1 1 0
4846 0 1 0 3.1439046227588983 85.04735173548116 21.585068034283257 1 1 0
4847 0 1 0 3.8492896749884844 83.78476376303772 21.691376087433493 1 1 0
4842 0 1 0 3.185877371319302 82.54972892125453 21.692200891894167 1 1 0
4851 0 1 0 3.865104123265768 86.31562871404198 21.466324204773482 1 1 0
4845 0 1 0 1.7229570667981968 85.01220326337072 21.606076142302534 1 1 0
4841 0 1 0 1.6833782391502883 82.5344574123154 21.608047927150157 1 1 0
4608 0 1 0 0.9628951044153202 83.81376544392776 21.568145389877284 1 1 0
4612 0 1 0 0.9676167872350736 86.29825245777496 21.592292877527548 1 1 0
5085 0 1 0 6.011334245253538 85.05849659636924 21.358003438438264 1 1 0
4848 0 1 0 5.285764963126015 83.75827670829675 21.511724820800882 1 1 0
5081 0 1 0 6.001034352189031 82.50856087711118 21.503921750385366 1 1 0
5086 0 1 0 7.503844884354855 85.02122674092277 21.331618158280694 1 1 0
5087 0 1 0 8.238632406440598 83.77475675785621 21.497127659396458 1 1 0
5082 0 1 0 7.472359097021641 82.46438421844982 21.458605756036253 1 1 0
4852 0 1 0 5.308201659235706 86.28402836638101 21.353434034941404 1 1 0
5091 0 1 0 8.239753107446075 86.29638321984923 21.26001811636111 1 1 0
5325 0 1 0 10.43027570044832 85.0089337456317 21.295504031287948 1 1 0
5088 0 1 0 9.704987921414794 83.74702904066733 21.47477656714895 1 1 0
5321 0 1 0 10.451662898530536 82.50039069773577 21.43949076654017 1 1 0
5326 0 1 0 11.880960103389908 85.03164709500315 21.277461465597877 1 1 0
5327 0 1 0 12.602342710983017 83.81405353970541 21.35000625522794 1 1 0
5322 0 1 0 11.851002615186733 82.53636843671498 21.341492346106936 1 1 0
5092 0 1 0 9.682138637557 86.2649772330486 21.269537692369852 1 1 0
5331 0 1 0 12.627644523488641 86.35990360185207 21.298520339069565 1 1 0
5313 0 1 0 10.433858469360471 77.45923113629145 21.73628532293337 1 1 0
4849 0 1 0 1.6839693172757246 87.60248244221928 21.561232074475736 1 1 0
4850 0 1 0 3.105718119822575 87.5740562055328 21.432073941451453 1 1 0
4836 0 1 0 5.340283333051874 76.20160922560353 21.63770992896472 1 1 0
5076 0 1 0 9.669773891612554 76.23440187034683 21.734184813570238 1 1 0
4833 0 1 0 1.7095337105105155 77.51020989741113 21.77704372820948 1 1 0
5089 0 1 0 6.025521002307887 87.54786203728617 21.293504556921125 1 1 0
4834 0 1 0 3.1791558323151015 77.4722367383154 21.689428188172094 1 1 0
5090 0 1 0 7.5032152173742865 87.5784208823325 21.23713080381491 1 1 0