LAMMPS (4 Feb 2025)
OMP_NUM_THREADS environment is not set. Defaulting to 1 thread. (src/comm.cpp:99)
  using 1 OpenMP thread(s) per MPI task
# LAMMPS script for continuing NVT simulation

atom_modify map yes
newton      on

read_restart nvt_prod.restart.880000
Reading restart file ...
  restart file = 4 Feb 2025, LAMMPS = 4 Feb 2025
  restoring atom style full from restart
  orthogonal box = (0 0 0) to (150.92784 145.23038 151.07317)
  8 by 8 by 16 MPI processor grid
  pair style symmetrix/mace stores no restart info
  11640 atoms
Finding 1-2 1-3 1-4 neighbors ...
  special bond factors lj:    0        0        0       
  special bond factors coul:  0        0        0       
     0 = max # of 1-2 neighbors
     0 = max # of 1-3 neighbors
     0 = max # of 1-4 neighbors
     1 = max # of special neighbors
  special bonds CPU = 5.055 seconds
  read_restart CPU = 5.243 seconds

pair_style  symmetrix/mace
pair_coeff  * * ../../../00-common/models/ch2o-dens-inv_swa-1-6-8.json C H O
Loading MACE model from '../../../00-common/models/ch2o-dens-inv_swa-1-6-8.json' ... success
  mapping LAMMPS type 1 (C) to MACE type 1
  mapping LAMMPS type 2 (H) to MACE type 0
  mapping LAMMPS type 3 (O) to MACE type 2

group graphene type 1
8640 atoms in group graphene
group H2O type 2 3
3000 atoms in group H2O

thermo 1000

######### NVT production for 80 ps #############

dump DUMP1 all atom 100 nvt_prod_11.lammpstrj
timestep 0.001
fix NVT1 graphene nvt temp 300 300 0.1
Resetting global fix info from restart file:
  fix style: nvt, fix ID: NVT1
fix NVT2 H2O nvt temp 300 300 0.1
Resetting global fix info from restart file:
  fix style: nvt, fix ID: NVT2
run 80000
All restart file global fix info was re-assigned
Neighbor list info ...
  update: every = 1 steps, delay = 0 steps, check = yes
  max neighbors/atom: 2000, page size: 100000
  master list distance cutoff = 8
  ghost atom cutoff = 8
  binsize = 4, bins = 38 37 38
  1 neighbor lists, perpetual/occasional/extra = 1 0 0
  (1) pair symmetrix/mace, perpetual
      attributes: full, newton on
      pair build: full/bin
      stencil: full/bin/3d
      bin: standard
Per MPI rank memory allocation (min/avg/max) = 5.921 | 6.16 | 8.969 Mbytes
   Step          Temp          E_pair         E_mol          TotEng         Press     
    880000   299.95228     -1809865.5      0             -1809414.2      33.369507    
    881000   301.50125     -1809875.2      0             -1809421.6      99.978102    
    882000   296.55799     -1809877.1      0             -1809431        50.455099    
    883000   300.03031     -1809869.8      0             -1809418.4      74.322609    
    884000   296.76578     -1809880.6      0             -1809434.1      107.186      
    885000   300.65123     -1809864.1      0             -1809411.8      57.152934    
    886000   302.95195     -1809870.9      0             -1809415.1      53.413921    
    887000   295.64315     -1809871.1      0             -1809426.3      80.644524    
    888000   302.03151     -1809865.3      0             -1809410.9      16.808719    
    889000   298.62086     -1809873.9      0             -1809424.6      81.329347    
    890000   304.67579     -1809870.5      0             -1809412.2      105.13948    
    891000   298.70183     -1809872.3      0             -1809422.9      52.178956    
    892000   301.51163     -1809873.9      0             -1809420.2      111.27671    
    893000   297.84965     -1809875.6      0             -1809427.5      47.953343    
    894000   301.82826     -1809866.2      0             -1809412.1      100.00183    
    895000   296.52992     -1809872.4      0             -1809426.2      76.81809     
    896000   303.06554     -1809874.6      0             -1809418.7      32.716816    
    897000   300.43463     -1809876.4      0             -1809424.4      33.299442    
    898000   303.49433     -1809872.7      0             -1809416.1      130.57963    
    899000   303.53799     -1809874.6      0             -1809417.9      34.050203    
    900000   301.34284     -1809875.4      0             -1809422        94.533923    
    901000   301.64437     -1809868.1      0             -1809414.2      53.641652    
    902000   299.59593     -1809871.4      0             -1809420.7      46.821856    
    903000   299.42396     -1809870.2      0             -1809419.7      113.00241    
    904000   299.05231     -1809869.9      0             -1809420        31.412486    
    905000   295.80215     -1809868.6      0             -1809423.6      93.381105    
    906000   303.33573     -1809874.8      0             -1809418.5      97.447521    
    907000   298.4433      -1809864.9      0             -1809415.9      21.291202    
    908000   298.65832     -1809869.4      0             -1809420.1      100.41482    
    909000   304.31043     -1809872.7      0             -1809414.8      46.316261    
    910000   296.31152     -1809870.6      0             -1809424.8      35.33339     
    911000   298.78877     -1809875.3      0             -1809425.8      112.58077    
    912000   298.78596     -1809873.3      0             -1809423.8      17.254595    
    913000   294.80204     -1809878.7      0             -1809435.2      55.976551    
    914000   299.38793     -1809873        0             -1809422.6      44.647044    
    915000   300.85387     -1809870.7      0             -1809418.1      67.310966    
    916000   300.83724     -1809874.8      0             -1809422.2      44.370491    
    917000   300.99085     -1809861        0             -1809408.2      71.273754    
    918000   300.46761     -1809871.6      0             -1809419.5      43.562812    
    919000   296.19475     -1809876        0             -1809430.4      121.90506    
    920000   302.94256     -1809875.9      0             -1809420.2      22.65462     
    921000   296.76282     -1809869.7      0             -1809423.3      72.290988    
    922000   302.39842     -1809874.6      0             -1809419.7      67.46199     
    923000   297.45649     -1809869.7      0             -1809422.2      45.033789    
    924000   302.26355     -1809873.2      0             -1809418.5      80.173575    
    925000   301.56955     -1809867.9      0             -1809414.2      84.447652    
    926000   301.86917     -1809870.8      0             -1809416.7      111.97606    
    927000   297.09984     -1809866.3      0             -1809419.3      52.717148    
    928000   298.7673      -1809863.8      0             -1809414.3      61.42381     
    929000   302.10342     -1809866.7      0             -1809412.2      73.895233    
    930000   299.82199     -1809871        0             -1809420        69.294604    
    931000   302.42625     -1809874        0             -1809419        16.811271    
    932000   295.64597     -1809870.6      0             -1809425.8      68.808291    
    933000   306.32955     -1809866.7      0             -1809405.9      83.05612     
    934000   301.95855     -1809879.5      0             -1809425.2      20.302289    
    935000   301.08114     -1809878.2      0             -1809425.3      70.280625    
    936000   299.74041     -1809870.2      0             -1809419.3      49.524695    
    937000   300.94374     -1809875.3      0             -1809422.5      60.229023    
    938000   298.10702     -1809877.5      0             -1809429        86.313342    
    939000   301.5605      -1809875.8      0             -1809422.1      61.294068    
    940000   300.00999     -1809876.7      0             -1809425.3      88.318745    
    941000   302.67888     -1809869.1      0             -1809413.7      87.778151    
    942000   296.97384     -1809872.7      0             -1809425.9      60.473052    
    943000   300.14662     -1809872.9      0             -1809421.3      61.926705    
    944000   302.50046     -1809871.8      0             -1809416.7      78.964171    
    945000   303.99384     -1809873.9      0             -1809416.6      109.18579    
    946000   296.10391     -1809870.1      0             -1809424.6      69.527527    
    947000   299.8385      -1809876.8      0             -1809425.7      68.584675    
    948000   297.92102     -1809869.8      0             -1809421.6      110.7593     
    949000   300.91072     -1809878.3      0             -1809425.6      44.588077    
    950000   303.91606     -1809874.2      0             -1809417        96.762064    
    951000   297.97855     -1809874.7      0             -1809426.4      43.244154    
    952000   302.37767     -1809874.8      0             -1809419.9      67.902986    
    953000   297.19616     -1809871.4      0             -1809424.3      70.812653    
    954000   300.11557     -1809874        0             -1809422.5     -6.7152217    
    955000   301.90705     -1809872.5      0             -1809418.3      61.493091    
    956000   300.74033     -1809876.8      0             -1809424.3      70.156996    
    957000   300.38845     -1809871.6      0             -1809419.7      53.309305    
    958000   300.82784     -1809874.4      0             -1809421.8      32.012899    
    959000   299.36662     -1809867        0             -1809416.6      80.47438     
    960000   304.20726     -1809876.6      0             -1809418.9      79.729687    
Loop time of 68931 on 1024 procs for 80000 steps with 11640 atoms

Performance: 0.100 ns/day, 239.344 hours/ns, 1.161 timesteps/s, 13.509 katom-step/s
100.0% CPU use with 1024 MPI tasks x 1 OpenMP threads

MPI task timing breakdown:
Section |  min time  |  avg time  |  max time  |%varavg| %total
---------------------------------------------------------------
Pair    | 0.32383    | 6458.2     | 68703      |17011.1 |  9.37
Bond    | 0.003225   | 0.0095802  | 0.13639    |  15.3 |  0.00
Neigh   | 0.055386   | 0.23177    | 6.5738     |  95.7 |  0.00
Comm    | 2.3257     | 2779.1     | 26616      |11481.9 |  4.03
Output  | 6.787      | 10.854     | 15.402     |  75.7 |  0.02
Modify  | 9.585      | 59672      | 68907      |7646.9 | 86.57
Other   |            | 10.25      |            |       |  0.01

Nlocal:        11.3672 ave         324 max           0 min
Histogram: 928 19 18 29 19 2 2 1 1 5
Nghost:        94.1904 ave        2007 max           0 min
Histogram: 831 98 65 9 10 4 5 0 1 1
Neighs:              0 ave           0 max           0 min
Histogram: 1024 0 0 0 0 0 0 0 0 0
FullNghs:      1224.59 ave       61697 max           0 min
Histogram: 952 53 5 3 3 2 0 1 2 3

Total # of neighbors = 1253976
Ave neighs/atom = 107.7299
Ave special neighs/atom = 0
Neighbor list builds = 3773
Dangerous builds = 0

write_restart nvt_prod.restart.*
System init for write_restart ...
write_data nvt_prod_final.lammps-data
System init for write_data ...

Total wall time: 19:09:17
