LAMMPS data file via write_data, version 4 Feb 2025, timestep = 960000, units = metal

11640 atoms
3 atom types

0 150.92783999999997 xlo xhi
0 145.23038175368129 ylo yhi
0 151.07316997686289 zlo zhi

Masses

1 12.01099999691024
2 1.007999999740698
3 15.99899999588435

Atoms # full

4374 0 1 0 9.089741625796336 0.8109290191458477 13.341416528498293 0 0 -1
4373 0 1 0 7.732392159562547 0.8146045800977537 13.647122879819495 0 0 -1
4140 0 1 0 7.105084850880126 2.0153068045621776 14.200515835191723 0 0 -1
4378 0 1 0 9.253350662365463 3.1808357347795435 14.13868551250738 0 0 -1
4614 0 1 0 13.112416214347277 1.0460419676656543 11.837515349529607 0 0 -1
4613 0 1 0 11.712747056951999 0.9803945382039047 12.309526046126738 0 0 -1
4380 0 1 0 11.136860076209999 2.1200332860937903 12.95278614978344 0 0 -1
4617 0 1 0 11.933431927487634 3.3334160368034422 13.174328345632103 0 0 -1
4618 0 1 0 13.225878274091665 3.3738283985178 12.630940785904835 0 0 -1
4619 0 1 0 13.806325582456733 2.2128739291402795 11.992586774236365 0 0 -1
4379 0 1 0 9.833215318208774 2.029348886457677 13.534262129843512 0 0 -1
4854 0 1 0 17.18271773820469 1.111932355317951 10.685384531765 0 0 -1
4853 0 1 0 15.800628319214871 1.0781538711623317 11.05736352270323 0 0 -1
4858 0 1 0 17.354261585782517 3.4085483062133095 11.469451626826114 0 0 -1
4620 0 1 0 15.188684151248655 2.2405157970488228 11.617465318187863 0 0 -1
4859 0 1 0 18.010551027643412 2.2596834186886174 10.952639083585504 0 0 -1
4857 0 1 0 15.96838956356264 3.4052231660491943 11.793940417196612 0 0 -1
4622 0 1 0 13.425200703236415 5.703603704985075 13.475224863243115 0 0 -1
4384 0 1 0 11.411606882311064 4.44824711468885 13.812717843876534 0 0 -1
4623 0 1 0 14.012467627456774 4.584199187715071 12.808704169984427 0 0 -1
4621 0 1 0 12.10388641097414 5.667854468061149 14.034898945317334 0 0 -1
4626 0 1 0 13.663160883434758 7.975181152360821 14.19704611514357 0 0 -1
4624 0 1 0 15.39630159005692 4.563890610176273 12.414066299031983 0 0 -1
4862 0 1 0 17.513601219774188 5.757504397096196 12.20908540921348 0 0 -1
4861 0 1 0 16.183987216814295 5.735033791088434 12.559281168521464 0 0 -1
4863 0 1 0 18.113117353251333 4.566617291840545 11.684809538124334 0 0 -1
4866 0 1 0 17.683818546348924 8.187475430221614 12.801535848849317 0 0 -1
4628 0 1 0 15.561698081232748 6.893782448720597 13.103811438332226 0 0 -1
4867 0 1 0 18.2719549783132 6.978269538078942 12.253649850458961 0 0 -1
4865 0 1 0 16.29949120164162 8.107445306534897 13.241782060521409 0 0 -1
4627 0 1 0 14.20270278531735 6.869881219613469 13.54827814509578 0 0 -1
4871 0 1 0 18.487657677930354 9.361204225399252 12.951292040280437 0 0 -1
4870 0 1 0 17.80478839271325 10.54717661623556 13.527869517628979 0 0 -1
4875 0 1 0 18.647112844127708 11.694105728815002 13.739951203657794 0 0 -1
4632 0 1 0 15.783274773853776 9.242358918092718 13.89302549253848 0 0 -1
4631 0 1 0 14.370171157503712 9.198702648161827 14.309080736140142 0 0 -1
4869 0 1 0 16.50431064322819 10.497636282314339 14.00211245169638 0 0 -1
3900 0 1 0 2.81686131222619 1.9667371894610461 15.159602062240646 0 0 -1
3894 0 1 0 0.6728910978998185 0.7094674150823682 15.410072332491886 0 0 -1
3899 0 1 0 1.4374724094787796 1.9181381675509495 15.651072176656903 0 0 -1
4133 0 1 0 3.4503598977374152 0.8223480060011431 14.615601146260225 0 0 -1
3898 0 1 0 0.8998183789498457 3.0588776850206263 16.278615488725485 0 0 -1
4137 0 1 0 3.5677921945455227 3.1692449467683232 15.251811492598453 0 0 -1
3904 0 1 0 3.0045750153087583 4.360852774048493 15.944818242689138 0 0 -1
3903 0 1 0 1.6236912831046677 4.278719289373907 16.437660643608485 0 0 -1
4377 0 1 0 7.835227461360401 3.163181713493403 14.509667447605228 0 0 -1
4134 0 1 0 4.8543082234952575 0.8581954398612006 14.229560049098907 0 0 -1
4139 0 1 0 5.656835441423198 2.030202027519633 14.420772197554335 0 0 -1
4138 0 1 0 4.990979806184896 3.1966776198559237 15.019506737737698 0 0 -1
4143 0 1 0 5.8451612842513825 4.329165447312237 15.366937715827836 0 0 -1
4144 0 1 0 7.266664478936795 4.313827250161668 15.067370399746014 0 0 -1
4383 0 1 0 10.013786386056594 4.426637503646637 14.240248588129322 0 0 -1
9927 0 2 0 11.515504230477976 8.51201959850599 17.727558300924642 4 6 -1
4141 0 1 0 3.821124296156567 5.471088812971954 16.16087187343047 0 0 -1
3908 0 1 0 3.2182081025875875 6.637073985157686 16.81863221005952 0 0 -1
3902 0 1 0 1.0586491882024327 5.400431554824363 17.06140382211888 0 0 -1
4145 0 1 0 3.9981839867076796 7.741886793267532 17.061830057193845 0 0 -1
3907 0 1 0 1.8348330431266655 6.601235456645947 17.19147432987113 0 0 -1
3906 0 1 0 1.2892281876628866 7.718854816442405 17.89000261091803 0 0 -1
3912 0 1 0 3.407111153731547 8.925932633335975 17.692300268994092 0 0 -1
3911 0 1 0 2.041927998306547 8.901894518688344 18.108851546758647 0 0 -1
4381 0 1 0 8.010305317652257 5.496004022940195 15.15826559743984 0 0 -1
4148 0 1 0 7.410865533969105 6.685350419392873 15.77688258494416 0 0 -1
4147 0 1 0 5.976905726058802 6.697789378372267 16.061068757445412 0 0 -1
4142 0 1 0 5.247555613774668 5.493264068332286 15.825848611375076 0 0 -1
4385 0 1 0 8.184048845460216 7.858399651621343 16.018804346530395 0 0 -1
4146 0 1 0 5.384805567795576 7.812951625276584 16.73052586507945 0 0 -1
4382 0 1 0 9.438498594367688 5.528263844748043 14.85701898694451 0 0 -1
4151 0 1 0 6.202223042756019 8.961148949680014 17.00259154651992 0 0 -1
4387 0 1 0 10.10676608274071 6.724567710824355 14.99969926047647 0 0 -1
4388 0 1 0 11.523836432113125 6.760352106652192 14.696663907972331 0 0 -1
4625 0 1 0 12.305128858347267 7.955747689257402 14.682420993017077 0 0 -1
4386 0 1 0 9.612910332500913 7.890114234240222 15.613545944635863 0 0 -1
11284 0 3 0 12.335334088214013 8.109174726978779 17.950535409326207 4 6 -1
4163 0 1 0 6.545865490818598 16.25597663180213 18.45309383822347 0 0 -1
4149 0 1 0 4.16299098278942 10.130347290076022 17.797975975115556 0 0 -1
3916 0 1 0 3.5715607517320844 11.34960921400616 18.307827270089625 0 0 -1
3910 0 1 0 1.4403552599883933 10.08198659181584 18.688135271833946 0 0 -1
4153 0 1 0 4.280849679559012 12.581259515980529 18.325878415378643 0 0 -1
4152 0 1 0 7.601487960028769 8.986391626898072 16.63097795268791 0 0 -1
4389 0 1 0 8.31209490826514 10.172746554215255 16.71340058814841 0 0 -1
4150 0 1 0 5.562508055098346 10.15003343083627 17.514452463862774 0 0 -1
4156 0 1 0 7.653425186253699 11.378926489797605 17.179335760626213 0 0 -1
4393 0 1 0 8.402814712843194 12.634966142203412 17.17238585473908 0 0 -1
4155 0 1 0 6.279162145532649 11.375634357475105 17.48430616533759 0 0 -1
4154 0 1 0 5.632680122202008 12.625157424003422 17.90545121068164 0 0 -1
4390 0 1 0 9.68734210335121 10.230510282288533 16.193393788336913 0 0 -1
4392 0 1 0 11.64312112339031 9.179312786232925 15.116940044673024 0 0 -1
4629 0 1 0 12.479528253248871 10.334024514738678 15.36029483524924 0 0 -1
4391 0 1 0 10.354912690946472 9.086511855307075 15.658320825387726 0 0 -1
4396 0 1 0 11.850711217891828 11.481615558685832 16.00790732594539 0 0 -1
4633 0 1 0 12.597455755800665 12.638171331793636 16.244016572180808 0 0 -1
4395 0 1 0 10.380955338191693 11.492369718639475 16.274712724259544 0 0 -1
4394 0 1 0 9.797440196951527 12.692028731729192 16.78328356030797 0 0 -1
4630 0 1 0 13.806337118415328 10.35875901807727 14.91324025327928 0 0 -1
4634 0 1 0 14.008449926918203 12.628897090409138 15.793054714447749 0 0 -1
4873 0 1 0 16.740053227016432 12.774943272577142 14.839051051920906 0 0 -1
4636 0 1 0 15.894937559005758 11.615512778731794 14.615018545494763 0 0 -1
4635 0 1 0 14.524808568356894 11.54111000518477 15.08987435025158 0 0 -1
4874 0 1 0 18.07634976125431 12.843370766973424 14.34094093757241 0 0 -1
4397 0 1 0 8.58131582741874 15.022489280272572 17.73889507252629 0 0 -1
4160 0 1 0 7.769364407177829 13.847960654798877 17.569546428128568 0 0 -1
4159 0 1 0 6.395516857025067 13.857721209946236 17.956474978688362 0 0 -1
4164 0 1 0 7.944457767274772 16.272275099199096 18.09181760059094 0 0 -1
3915 0 1 0 2.173852549809023 11.264860568664885 18.76801065923727 0 0 -1
4398 0 1 0 9.945950011944623 15.056893080796822 17.36186288639681 0 0 -1
4399 0 1 0 10.57659204178629 13.884428740987609 16.939970368665055 0 0 -1
4637 0 1 0 12.805554031568034 14.9816967830643 16.95325591955071 0 0 -1
4400 0 1 0 11.984085514952014 13.837720207180878 16.720295362556403 0 0 -1
4404 0 1 0 12.116465993932769 16.21343069605929 17.381032871538874 0 0 -1
4641 0 1 0 12.925285945007293 17.409665639423192 17.565256980747755 0 0 -1
4403 0 1 0 10.709975590206625 16.250520155058407 17.56481201234385 0 0 -1
4402 0 1 0 10.057262450986745 17.464629664894595 17.961623159951063 0 0 -1
4638 0 1 0 14.18240084076911 15.037103753103455 16.514011698522697 0 0 -1
4643 0 1 0 14.951876827052807 16.204965804740144 16.66322468629087 0 0 -1
4642 0 1 0 14.323134919185472 17.38150071826887 17.181279407584118 0 0 -1
4877 0 1 0 16.961662063081572 15.071871276808197 15.699869523472879 0 0 -1
4878 0 1 0 18.301184095236312 15.167990524572545 15.283346066161727 0 0 -1
4640 0 1 0 16.165014640027557 13.870262389325354 15.543174972260632 0 0 -1
4882 0 1 0 18.45692537255526 17.493443363212762 16.00901388083719 0 0 -1
4639 0 1 0 14.842702582373233 13.796924236175455 16.003070658850717 0 0 -1
4644 0 1 0 16.330207134231845 16.236491696318822 16.28598717250717 0 0 -1
4881 0 1 0 17.052562265086397 17.4200200353003 16.40457771366047 0 0 -1
4158 0 1 0 5.7777082984258765 15.085416623505715 18.378289005952645 0 0 -1
4401 0 1 0 8.680651561306389 17.485719501488457 18.30557353314735 0 0 -1
3920 0 1 0 3.667382949850274 13.765761393703144 18.802751224850805 0 0 -1
4157 0 1 0 4.347236691249971 15.011762903466279 18.784346067867162 0 0 -1
4879 0 1 0 18.836121729466313 13.999324838684773 14.63481084590248 0 0 -1
3913 0 1 0 0.2145133092314494 12.503616862747199 19.55203883162423 0 0 -1
3914 0 1 0 1.6002293123061548 12.572719552088394 19.19653000082223 0 0 -1
4162 0 1 0 5.945442380739632 17.461580699219684 18.991052542188736 0 0 -1
3924 0 1 0 3.790856171336362 16.12828488620014 19.349483589484002 0 0 -1
4161 0 1 0 4.524360187292539 17.31350329848722 19.381639643646704 0 0 -1
3921 0 1 0 0.36799331952738823 17.315291053134 20.52129813500777 0 0 -1
3917 0 1 0 0.28735399436250614 14.910682863480808 20.014254774486883 0 0 -1
3918 0 1 0 1.6865081312875958 14.94829746737929 19.666543917114286 0 0 -1
3919 0 1 0 2.297329068520716 13.803535113855643 19.107307130982495 0 0 -1
3923 0 1 0 2.3970653523634295 16.156122589072616 19.764601403136545 0 0 -1
3922 0 1 0 1.7445227312772245 17.33705280445331 20.22781030414422 0 0 -1
9928 0 2 0 12.394908292525587 8.124352667315678 18.91329912263349 4 6 -1
3909 0 1 0 0.07809385671049454 10.043100770173904 19.042183250832238 0 0 -1
4408 0 1 0 12.234326303691125 18.584629410271642 17.99825783593162 0 0 -1
4645 0 1 0 13.015473673738674 19.81321827599723 18.158762750815676 0 0 -1
4407 0 1 0 10.892298655045606 18.63025573111934 18.188706842527107 0 0 -1
4886 0 1 0 18.527035936685984 19.87152095150113 16.42819762342706 0 0 -1
4651 0 1 0 15.167689212146461 20.97661577515958 17.737691884774748 0 0 -1
4648 0 1 0 16.381119697286174 18.6191596253121 16.8812118702731 0 0 -1
4885 0 1 0 17.167570997842233 19.831533397330183 16.924124351869576 0 0 -1
4647 0 1 0 15.058828381501543 18.598618708451767 17.285590891642038 0 0 -1
4652 0 1 0 16.53130200458607 21.00566853837892 17.285005175587568 0 0 -1
4646 0 1 0 14.424942744870917 19.77747925388027 17.824595136744 0 0 -1
4889 0 1 0 17.284708577100155 22.250557341349968 17.403434271968305 0 0 -1
4650 0 1 0 14.53295363735565 22.19440184011352 18.17826984661243 0 0 -1
4893 0 1 0 17.463702688014163 24.556191735497734 18.23377291070709 0 0 -1
4656 0 1 0 16.683601584230896 23.3991125033473 17.939258919819444 0 0 -1
4890 0 1 0 18.731041324275047 22.229719515739593 17.171282919834184 0 0 -1
4649 0 1 0 13.156443420955789 22.187739938733884 18.654592655533047 0 0 -1
4655 0 1 0 15.233064853841984 23.420193414117218 18.1991258898256 0 0 -1
4412 0 1 0 12.35194989113963 20.987717673710463 18.59187380747474 0 0 -1
4660 0 1 0 16.783611858478217 25.774493798118396 18.68193641447382 0 0 -1
4897 0 1 0 17.6067238981478 26.980992772613938 18.86368099749127 0 0 -1
4894 0 1 0 18.819461177293256 24.68006535189692 17.80484061695087 0 0 -1
4406 0 1 0 10.234064752800077 19.782483714757603 18.66952010379071 0 0 -1
4654 0 1 0 14.638710927259709 24.59282118219983 18.73831464301177 0 0 -1
3927 0 1 0 2.5017245254627474 18.53953002588921 20.108233365748394 0 0 -1
3926 0 1 0 1.862547437340651 19.74184943765995 20.56488085239568 0 0 -1
3925 0 1 0 0.4654499964053966 19.716301158833122 20.977860536269002 0 0 -1
3931 0 1 0 2.6409297207872537 20.935043936155 20.789946999884773 0 0 -1
3930 0 1 0 2.012528100448988 22.11086256206611 21.181212034896976 0 0 -1
3929 0 1 0 0.6013302977804076 22.168567264983196 21.46244390563605 0 0 -1
3928 0 1 0 3.9025439296741573 18.53782018094561 19.865723067489157 0 0 -1
3932 0 1 0 4.0640892101477135 20.94515405980649 20.604097644019422 0 0 -1
4167 0 1 0 6.675077958271835 18.60494545671594 19.235090907904898 0 0 -1
4166 0 1 0 6.056825367614766 19.746570901213765 19.8019889462474 0 0 -1
4171 0 1 0 6.833655643332601 20.943433415638445 19.948733459098687 0 0 -1
4165 0 1 0 4.686747024538208 19.74413902838818 20.049429190532518 0 0 -1
3704 0 1 0 0.05463447986129006 28.30953022642254 21.85142466674262 0 0 -1
4172 0 1 0 8.209235144255434 20.973973407615375 19.51583106413522 0 0 -1
4170 0 1 0 6.195081751419524 22.15234999415325 20.372150764677574 0 0 -1
4169 0 1 0 4.808517563734604 22.123706717071748 20.768028535140026 0 0 -1
4405 0 1 0 8.843072334195945 19.80927440125851 19.02076557177161 0 0 -1
4409 0 1 0 8.995245206514575 22.15804836192076 19.71805300962128 0 0 -1
4411 0 1 0 10.967001505235995 20.983791746684815 18.933568215928304 0 0 -1
4659 0 1 0 15.400261781153137 25.777439465363656 18.898071502084644 0 0 -1
4665 0 1 0 13.671718101649097 31.76066167357753 20.867346223262324 0 0 -1
4410 0 1 0 10.38734259571425 22.153044211237283 19.3915217659846 0 0 -1
4672 0 1 0 17.18428471122871 33.01836592160573 20.36792779647679 0 0 -1
3935 0 1 0 2.7421901164467135 23.326174634817935 21.37868031049068 0 0 -1
3934 0 1 0 2.11783001757351 24.567681874341126 21.68035509080565 0 0 -1
3933 0 1 0 0.7054118171750018 24.61324143176249 21.84485000320117 0 0 -1
4905 0 1 0 17.87384120927394 31.76231794490018 20.020365624477865 0 0 -1
3939 0 1 0 2.8632202363705126 25.79255713457851 21.66045991790021 0 0 -1
3936 0 1 0 4.166965675827058 23.297670755894533 21.23743302286696 0 0 -1
3940 0 1 0 4.279719558037344 25.801479297006853 21.526654396524076 0 0 -1
3937 0 1 0 0.7152629560750685 27.070354545453355 21.820145105030484 0 0 -1
3938 0 1 0 2.1849916398313423 27.027700706759596 21.695336847840693 0 0 -1
4174 0 1 0 6.371995771015126 24.52511604418138 21.041036197436988 0 0 -1
4175 0 1 0 6.986627550346176 23.326225984423488 20.592679825552114 0 0 -1
4179 0 1 0 7.117135112981699 25.759064179205307 21.060392739699786 0 0 -1
4176 0 1 0 8.328379101658616 23.336354979632695 20.192881643024773 0 0 -1
4173 0 1 0 4.946962512550093 24.574330361902057 21.323093168442636 0 0 -1
4180 0 1 0 8.540614277590745 25.76612070254791 20.75172584541622 0 0 -1
4178 0 1 0 6.387488405051762 26.972183430547872 21.185286853977622 0 0 -1
4177 0 1 0 4.988381483033979 27.012828090713082 21.48801930859104 0 0 -1
4413 0 1 0 9.093163335020158 24.540181598281745 20.321218419932077 0 0 -1
4417 0 1 0 9.280933360245237 27.01888815441604 20.703360828769192 0 0 -1
4415 0 1 0 11.146554414471398 23.3887973742927 19.44736356165074 0 0 -1
4416 0 1 0 12.523263024479308 23.38971419911002 19.08321923314785 0 0 -1
4414 0 1 0 10.481121514761254 24.55096190276749 19.914422812978334 0 0 -1
4419 0 1 0 11.218885126023155 25.80263720419678 19.892730567984053 0 0 -1
4420 0 1 0 12.618406280087573 25.807168289268965 19.52689579085953 0 0 -1
4653 0 1 0 13.264459614574056 24.638152830153153 19.059268360377757 0 0 -1
4418 0 1 0 10.630203955510252 27.003835812188512 20.279377958137964 0 0 -1
4657 0 1 0 13.397115217301762 26.936306211763487 19.73711781213841 0 0 -1
4676 0 1 0 17.22681319343288 35.522816439442956 20.524035435296668 0 0 -1
4666 0 1 0 15.079250856485494 31.745757523193895 20.53190830258778 0 0 -1
4909 0 1 0 17.87515141610819 34.28743483676641 20.344715403413893 0 0 -1
4658 0 1 0 14.805070900426912 26.99888692916584 19.36973316155837 0 0 -1
4670 0 1 0 15.16536571051434 34.21383682521103 20.93011119161801 0 0 -1
4675 0 1 0 15.853954862256208 35.46600910746342 20.834413184615723 0 0 -1
3941 0 1 0 0.8089455184603453 29.50604473342508 21.800450035824227 0 0 -1
3708 0 1 0 0.12467242141963679 30.769456092155963 21.662030907124937 0 0 -1
3943 0 1 0 2.9020448553487053 28.234751727704836 21.64168094270762 0 0 -1
4664 0 1 0 16.96923641822131 28.1510506740723 19.3738570852961 0 0 -1
3942 0 1 0 2.2402370568721426 29.501438974802053 21.66763632198906 0 0 -1
3947 0 1 0 2.947513814988016 30.730060281582656 21.64897812464966 0 0 -1
3944 0 1 0 4.328934174437205 28.25977656255817 21.664897655172755 0 0 -1
3948 0 1 0 4.383259369029773 30.686864499322557 21.59393158246182 0 0 -1
4184 0 1 0 8.603798314024067 28.258245601579947 20.968143830427834 0 0 -1
4183 0 1 0 7.145715612765139 28.24429968228849 21.16910411683664 0 0 -1
4188 0 1 0 8.672250097731492 30.661891051889995 21.158784005937157 0 0 -1
4182 0 1 0 6.528932330678193 29.465144711653107 21.391855664466743 0 0 -1
4181 0 1 0 5.148105628436573 29.517105474485387 21.62257047572088 0 0 -1
4187 0 1 0 7.281320593110428 30.65061173614401 21.339968836995713 0 0 -1
4422 0 1 0 10.79404531806837 29.428661493646526 20.75919754658033 0 0 -1
4423 0 1 0 11.438943157496102 28.18280844621082 20.31970201828084 0 0 -1
4427 0 1 0 11.51544936305665 30.637278270713438 20.897424862473063 0 0 -1
4424 0 1 0 12.802729770329211 28.192426716052797 20.092207886252933 0 0 -1
4428 0 1 0 12.90262646778329 30.588987760371555 20.66514739185676 0 0 -1
4421 0 1 0 9.37595926911179 29.48007541358563 20.943644571765848 0 0 -1
4661 0 1 0 13.565755240968583 29.350667566505194 20.243481783059398 0 0 -1
4671 0 1 0 15.78824927177818 32.9824749526494 20.601224977940806 0 0 -1
4668 0 1 0 17.119747319317476 30.546173890774277 19.888778754089397 0 0 -1
4663 0 1 0 15.568198230128456 28.135705455872834 19.54912373141224 0 0 -1
4667 0 1 0 15.701691872063527 30.579656280017275 20.081653273145573 0 0 -1
4662 0 1 0 14.933118356493203 29.36183855116628 20.009544924957677 0 0 -1
4901 0 1 0 17.786317115607947 29.330278065888308 19.47217203274469 0 0 -1
3712 0 1 0 0.18178347365239583 33.23399281445036 21.443584906545166 0 0 -1
3716 0 1 0 0.23009238097540965 35.68836756278891 21.147775312708557 0 0 -1
3945 0 1 0 0.862400051167099 31.985218340647865 21.590476569559858 0 0 -1
3949 0 1 0 0.9404808029248286 34.48265355479229 21.338199399905488 0 0 -1
3950 0 1 0 2.3336461885483315 34.445528768200724 21.55855115570638 0 0 -1
3955 0 1 0 3.0836268754459004 35.6582297400539 21.529577200107532 0 0 -1
3946 0 1 0 2.2473441283195967 31.935362002282783 21.646877417021162 0 0 -1
3951 0 1 0 2.979854668449242 33.19929515114334 21.625556803571726 0 0 -1
3952 0 1 0 4.416648396456796 33.186063019923765 21.670769609986394 0 0 -1
3956 0 1 0 4.515148868566227 35.66692749551159 21.643212959318127 0 0 -1
4185 0 1 0 5.124541083378693 31.94881281323096 21.641837443482938 0 0 -1
4189 0 1 0 5.2038418098708625 34.39669024831067 21.74138650040722 0 0 -1
4195 0 1 0 7.361121204150506 35.59723251961866 21.70940920471983 0 0 -1
4192 0 1 0 8.758891362856483 33.11040240421337 21.574313469444157 0 0 -1
4186 0 1 0 6.572836935546955 31.918388265976233 21.468183002594298 0 0 -1
4191 0 1 0 7.309496679069248 33.10714961346987 21.627032592874965 0 0 -1
4196 0 1 0 8.839306979044089 35.57532942766133 21.736112882392828 0 0 -1
4190 0 1 0 6.656956833818544 34.38110915130616 21.73805311544452 0 0 -1
4429 0 1 0 9.53086413716434 34.28147314307944 21.641131305206347 0 0 -1
4432 0 1 0 13.029258239795054 32.985535293503204 21.174685351026202 0 0 -1
4436 0 1 0 13.062604109034591 35.50851719085289 21.358741480960944 0 0 -1
4426 0 1 0 10.882931322987885 31.831534293186238 21.24626390365213 0 0 -1
4431 0 1 0 11.631121329822397 33.03646141272731 21.38206889357145 0 0 -1
4425 0 1 0 9.429335050678171 31.853171209879246 21.299637245577927 0 0 -1
4435 0 1 0 11.681251564671756 35.502716463909486 21.608344309472454 0 0 -1
4430 0 1 0 10.940141257416 34.30005430791176 21.59405913508226 0 0 -1
4669 0 1 0 13.760487259517886 34.23416299507361 21.174075963971344 0 0 -1
4168 0 1 0 8.079833705834217 18.66417054129072 18.89603229820684 0 0 -1
3957 0 1 0 1.0413587046372412 39.33462356067047 20.974809157563115 0 0 -1
3720 0 1 0 0.3529731288440286 38.15368196296246 20.886747698163393 0 0 -1
3953 0 1 0 0.9386677036203519 36.94395733001315 21.18147502478423 0 0 -1
3958 0 1 0 2.476118200210692 39.287611487982666 21.288842874653326 0 0 -1
3954 0 1 0 2.3603684890938155 36.88180986083588 21.350263598372383 0 0 -1
3959 0 1 0 3.101679263908816 38.062720169213 21.365821943455835 0 0 -1
3724 0 1 0 0.3105630131631427 40.599448367417345 20.939323726346665 0 0 -1
3963 0 1 0 3.12930659906797 40.54044880527521 21.300093268419996 0 0 -1
3960 0 1 0 4.560910812039732 38.07248722466522 21.37020957460388 0 0 -1
3964 0 1 0 4.541440497242052 40.5635800276521 21.404732769872943 0 0 -1
4193 0 1 0 5.287162189948735 36.845794309602596 21.57501292155682 0 0 -1
4197 0 1 0 5.287765941806612 39.36135782692914 21.447858056720005 0 0 -1
4198 0 1 0 6.707080935087913 39.31086187765803 21.618799712038854 0 0 -1
4199 0 1 0 7.445234193388207 38.098266729531154 21.709254625991424 0 0 -1
4203 0 1 0 7.4048387075226545 40.54236611304842 21.733362105864536 0 0 -1
4194 0 1 0 6.733948856459553 36.83196556252518 21.767354164488868 0 0 -1
4200 0 1 0 8.840587210793533 38.078956781595615 21.859938012362214 0 0 -1
4204 0 1 0 8.815898172886394 40.52109038939192 21.762942959563198 0 0 -1
4440 0 1 0 13.126311490440695 37.982610941291576 21.478117698115195 0 0 -1
4439 0 1 0 11.75766981016816 37.94662282193093 21.665180499532696 0 0 -1
4438 0 1 0 11.00156504356944 39.19439357261938 21.728187729137222 0 0 -1
4444 0 1 0 13.11586843728199 40.49907168282401 21.481166134578206 0 0 -1
4443 0 1 0 11.703543224412423 40.4630476881925 21.675406745251777 0 0 -1
4434 0 1 0 11.011470792697969 36.75143025703881 21.752081045053647 0 0 -1
4433 0 1 0 9.511335610559403 36.818090692785375 21.798009570347066 0 0 -1
4673 0 1 0 13.790079216511849 36.739190293391076 21.230895981154998 0 0 -1
4677 0 1 0 13.816307079292477 39.21581050484212 21.292619322555975 0 0 -1
4437 0 1 0 9.597960884414002 39.28851694066519 21.732932085156815 0 0 -1
4680 0 1 0 17.29567559609416 37.94295298394135 20.718280458386534 0 0 -1
4679 0 1 0 15.932414032971915 37.97346063544154 20.940035629158928 0 0 -1
4674 0 1 0 15.171106987961032 36.71177490399513 20.944526498396478 0 0 -1
4678 0 1 0 15.200181446387509 39.24196656192798 20.992961414027754 0 0 -1
4913 0 1 0 17.960810105575572 36.74572115684518 20.469926475551034 0 0 -1
4917 0 1 0 17.976165092978015 39.201713128531274 20.64127012217315 0 0 -1
4683 0 1 0 15.893482094846984 40.50870421711153 20.945760785434484 0 0 -1
4684 0 1 0 17.310754199218593 40.45042312103729 20.77794795565309 0 0 -1
3728 0 1 0 0.3461369714583061 43.058582115858236 20.88582066275102 0 0 -1
3961 0 1 0 1.0446722253315304 41.86205840500263 21.010216428792283 0 0 -1
3965 0 1 0 1.0735619083489374 44.27659519713607 21.030577648176493 0 0 -1
3966 0 1 0 2.4587650346328815 44.27988963633629 21.358421222815785 0 0 -1
3962 0 1 0 2.4849796592340536 41.78272478758976 21.21139751521521 0 0 -1
3967 0 1 0 3.1380813629106283 43.02413899704907 21.40324074584373 0 0 -1
3968 0 1 0 4.553837333036119 43.05033358277547 21.632778457178222 0 0 -1
4205 0 1 0 5.213615227437933 44.237475070036815 21.765034303218204 0 0 -1
4201 0 1 0 5.2571388597158535 41.77331477695757 21.604906495929136 0 0 -1
4202 0 1 0 6.685830312881256 41.76873100661217 21.840280457068438 0 0 -1
4206 0 1 0 6.686599108936618 44.2257764307401 21.80071414143198 0 0 -1
4208 0 1 0 8.860635770755215 43.00206664839039 21.859179819953066 0 0 -1
4207 0 1 0 7.401944108536067 42.97418800180943 21.86945149789971 0 0 -1
4448 0 1 0 13.06293620683582 42.95893233667606 21.53436073041954 0 0 -1
4447 0 1 0 11.647204781663229 42.932959585203065 21.71793599425566 0 0 -1
4685 0 1 0 13.799013849918463 44.19316587705906 21.42712775917939 0 0 -1
4681 0 1 0 13.830685684132938 41.73478737831769 21.39360591528753 0 0 -1
4441 0 1 0 9.528760599192278 41.75493524266902 21.900597620320177 0 0 -1
4445 0 1 0 9.55364741367197 44.229731187785276 21.87663648713036 0 0 -1
4446 0 1 0 10.962695505746664 44.23644286841055 21.82689684693547 0 0 -1
4442 0 1 0 10.960558551577023 41.70210151169073 21.874013596994537 0 0 -1
4688 0 1 0 17.343100010138695 42.966366804804444 20.86696885719434 0 0 -1
4687 0 1 0 15.9322250347084 42.96587241679593 21.06622567157483 0 0 -1
4682 0 1 0 15.207758614667032 41.6628156751198 21.18670952140473 0 0 -1
4686 0 1 0 15.20468154462812 44.148905869608214 21.243990283879373 0 0 -1
4921 0 1 0 18.005046590916702 41.71100487855984 20.666581725875442 0 0 -1
4925 0 1 0 18.00023200834217 44.16755655218123 20.695471688248603 0 0 -1
3736 0 1 0 0.4752414614145293 47.96816276378065 20.818015752604115 0 0 -1
3732 0 1 0 0.3742950164560956 45.470418180722625 20.824007124002396 0 0 -1
3973 0 1 0 1.1215065482632371 49.21027370974082 21.090091053510665 0 0 -1
3969 0 1 0 1.103691220879497 46.6788731000366 20.919667277041693 0 0 -1
3974 0 1 0 2.524055828015291 49.19861120836571 21.326350636817832 0 0 -1
3970 0 1 0 2.5024246271464174 46.74640767552673 21.262060017924433 0 0 -1
3971 0 1 0 3.2324222622285204 45.49112220520111 21.459246179666568 0 0 -1
3975 0 1 0 3.223933973094539 47.96768301110131 21.331466020850062 0 0 -1
3972 0 1 0 4.589353796443042 45.45888092167269 21.719183658200024 0 0 -1
3976 0 1 0 4.598182111376352 47.92744195711192 21.692344182485463 0 0 -1
4209 0 1 0 5.30492144356749 46.72070052745772 21.828701961776254 0 0 -1
4210 0 1 0 6.702692542667836 46.706507885094204 21.995049420996533 0 0 -1
4215 0 1 0 7.360760239391385 47.94334886708649 22.233926751000645 0 0 -1
4213 0 1 0 5.24592869791012 49.143876551183766 21.95111984257332 0 0 -1
4214 0 1 0 6.640907708808202 49.143525196144374 22.207332559612848 0 0 -1
4216 0 1 0 8.857101397420228 47.94229223585672 22.273286422702384 0 0 -1
4212 0 1 0 8.836509309686358 45.47396984840714 22.07062367856269 0 0 -1
4211 0 1 0 7.402055749524456 45.438045774248316 21.971850276021012 0 0 -1
4455 0 1 0 11.720362051278366 47.943818383182794 22.072773421162477 0 0 -1
4452 0 1 0 13.11075397105698 45.424234465510075 21.604309592962853 0 0 -1
4454 0 1 0 10.968006492494316 49.15714315541159 22.189018778486925 0 0 -1
4456 0 1 0 13.096330096653379 47.94122796904045 21.721626056074193 0 0 -1
4450 0 1 0 11.01085476114323 46.6807615478669 22.04906087480958 0 0 -1
4451 0 1 0 11.722158980117872 45.4588214106195 21.90230368921205 0 0 -1
4453 0 1 0 9.555817755311315 49.153358203402846 22.202109226780905 0 0 -1
4449 0 1 0 9.577956621681524 46.67219178726433 22.194033775020113 0 0 -1
4693 0 1 0 13.772496722404568 49.175901390193204 21.469319337593213 0 0 -1
4689 0 1 0 13.762926963264233 46.69200214624205 21.507237310013537 0 0 -1
4692 0 1 0 17.240721474369487 45.405239335213096 20.741122303090723 0 0 -1
4696 0 1 0 17.22482933165612 47.87497276322025 20.814967142094083 0 0 -1
4694 0 1 0 15.123127609293084 49.16840952900076 21.077081467633082 0 0 -1
4695 0 1 0 15.830462735204192 47.92651022183894 21.06484879568 0 0 -1
4691 0 1 0 15.847477603017506 45.4366791179609 21.04305103382033 0 0 -1
4690 0 1 0 15.17028510777564 46.69035177607783 21.200343868885422 0 0 -1
4933 0 1 0 17.889957555692387 49.07913132912581 20.545007017749196 0 0 -1
4929 0 1 0 17.932205266134527 46.657602283611496 20.665923566456524 0 0 -1
3740 0 1 0 0.476672438357342 50.441194937858505 20.93975387833411 0 0 -1
3977 0 1 0 1.161684865461987 51.69175325498196 21.058962022190716 0 0 -1
3744 0 1 0 0.4364115343751573 52.912841704640975 21.034225785867985 0 0 -1
3978 0 1 0 2.51461467264626 51.63706705929668 21.568277695965403 0 0 -1
3979 0 1 0 3.227399301557222 50.40747256223456 21.764892350800114 0 0 -1
3983 0 1 0 3.1635243315677433 52.879919110323954 21.79405998609957 0 0 -1
3982 0 1 0 2.456368976546328 54.125802814695085 21.68125745857363 0 0 -1
3981 0 1 0 1.1144721211819921 54.15971396805566 21.23084363836491 0 0 -1
3984 0 1 0 4.535657005617457 52.87605127731797 22.208614642822337 0 0 -1
3980 0 1 0 4.615779382863931 50.38834707714735 22.022310615179354 0 0 -1
4222 0 1 0 6.695667362738591 54.145705223526825 22.215797484744915 0 0 -1
4218 0 1 0 6.705319312048915 51.572731752007506 22.40424309197066 0 0 -1
4224 0 1 0 8.860398304538469 52.90972792599903 22.33939696684201 0 0 -1
4223 0 1 0 7.405304862156949 52.88859348652835 22.334690027870572 0 0 -1
4220 0 1 0 8.883698828907454 50.43133214394715 22.302596124489956 0 0 -1
4219 0 1 0 7.3803934034781 50.36827098358153 22.38384450734324 0 0 -1
4217 0 1 0 5.265819517297281 51.613505388373724 22.22599226669174 0 0 -1
4221 0 1 0 5.306055184049488 54.13025407342074 22.189862378245554 0 0 -1
4457 0 1 0 9.595124950260084 51.62643953018092 22.312298361089244 0 0 -1
4460 0 1 0 13.063594110791751 50.39258937319213 21.632799152730016 0 0 -1
4464 0 1 0 13.078750247536789 52.934230098510845 21.71977339050433 0 0 -1
4463 0 1 0 11.709743506516972 52.93034854979376 22.071386237386378 0 0 -1
4459 0 1 0 11.678398861660025 50.35842846097704 22.002779905577203 0 0 -1
4458 0 1 0 11.020205045488053 51.67474040409303 22.127018836303126 0 0 -1
4697 0 1 0 13.754272415868199 51.66943648107553 21.483384789279327 0 0 -1
4461 0 1 0 9.536631623995424 54.1581668121974 22.269228128431365 0 0 -1
4701 0 1 0 13.756471533320727 54.1865089395042 21.509182915030088 0 0 -1
4462 0 1 0 10.972229324810197 54.16779186970085 22.044563248192468 0 0 -1
4699 0 1 0 15.80134803677613 50.38537403963824 20.893417672429443 0 0 -1
4700 0 1 0 17.19588924734966 50.37732097824835 20.585503857324575 0 0 -1