LAMMPS (4 Feb 2025)
OMP_NUM_THREADS environment is not set. Defaulting to 1 thread. (src/comm.cpp:99)
  using 1 OpenMP thread(s) per MPI task
# LAMMPS script for continuing NVT simulation

atom_modify map yes
newton      on

read_restart nvt_prod.restart.1120000
Reading restart file ...
  restart file = 4 Feb 2025, LAMMPS = 4 Feb 2025
  restoring atom style full from restart
  orthogonal box = (0 0 0) to (154.008 148.2 151.07609)
  16 by 8 by 10 MPI processor grid
  pair style symmetrix/mace stores no restart info
  11040 atoms
Finding 1-2 1-3 1-4 neighbors ...
  special bond factors lj:    0        0        0       
  special bond factors coul:  0        0        0       
     0 = max # of 1-2 neighbors
     0 = max # of 1-3 neighbors
     0 = max # of 1-4 neighbors
     1 = max # of special neighbors
  special bonds CPU = 5.126 seconds
  read_restart CPU = 5.322 seconds

pair_style  symmetrix/mace
pair_coeff  * * ../../../../00-common/models/ch2o-dens-inv_swa-1-6-8.json C H O
Loading MACE model from '../../../../00-common/models/ch2o-dens-inv_swa-1-6-8.json' ... success
  mapping LAMMPS type 1 (C) to MACE type 1
  mapping LAMMPS type 2 (H) to MACE type 0
  mapping LAMMPS type 3 (O) to MACE type 2

group graphene type 1
8640 atoms in group graphene
group H2O type 2 3
2400 atoms in group H2O

thermo 1000

######### NVT production for 80 ps #############

dump DUMP1 all atom 100 nvt_prod_14.lammpstrj
timestep 0.001
fix NVT1 graphene nvt temp 300 300 0.1
Resetting global fix info from restart file:
  fix style: nvt, fix ID: NVT1
fix NVT2 H2O nvt temp 300 300 0.1
Resetting global fix info from restart file:
  fix style: nvt, fix ID: NVT2
run 80000
All restart file global fix info was re-assigned
Neighbor list info ...
  update: every = 1 steps, delay = 0 steps, check = yes
  max neighbors/atom: 2000, page size: 100000
  master list distance cutoff = 8
  ghost atom cutoff = 8
  binsize = 4, bins = 39 38 38
  1 neighbor lists, perpetual/occasional/extra = 1 0 0
  (1) pair symmetrix/mace, perpetual
      attributes: full, newton on
      pair build: full/bin
      stencil: full/bin/3d
      bin: standard
Per MPI rank memory allocation (min/avg/max) = 5.919 | 6.139 | 7.963 Mbytes
   Step          Temp          E_pair         E_mol          TotEng         Press     
   1120000   297.34131     -1715953.3      0             -1715529        28.973419    
   1121000   298.8999      -1715944.8      0             -1715518.3      59.189065    
   1122000   301.20845     -1715948.9      0             -1715519.1      62.431124    
   1123000   298.68186     -1715950.4      0             -1715524.2      41.498455    
   1124000   300.76926     -1715955.8      0             -1715526.6      51.834922    
   1125000   298.95873     -1715950.8      0             -1715524.2      25.119581    
   1126000   299.57305     -1715940.7      0             -1715513.3      30.892445    
   1127000   297.80003     -1715948.5      0             -1715523.6      22.026631    
   1128000   301.38437     -1715949        0             -1715518.9      41.623476    
   1129000   300.87541     -1715948        0             -1715518.7      23.103023    
   1130000   299.37732     -1715946.4      0             -1715519.2      39.86764     
   1131000   302.79935     -1715950.5      0             -1715518.4      27.779189    
   1132000   302.81268     -1715955.9      0             -1715523.8      25.266392    
   1133000   302.77486     -1715949.2      0             -1715517.2      28.403419    
   1134000   301.46403     -1715949.5      0             -1715519.4      25.861427    
   1135000   297.98931     -1715950.2      0             -1715525        9.5410885    
   1136000   296.11518     -1715943.8      0             -1715521.3      36.397241    
   1137000   301.99916     -1715953.4      0             -1715522.5      45.068718    
   1138000   301.20635     -1715951.4      0             -1715521.6      42.423919    
   1139000   299.37983     -1715950.8      0             -1715523.6      28.392091    
   1140000   299.31759     -1715940.7      0             -1715513.6      7.7290318    
   1141000   301.25532     -1715949        0             -1715519.2      42.544782    
   1142000   302.67483     -1715952.7      0             -1715520.9      87.247668    
   1143000   296.07938     -1715946.1      0             -1715523.7      46.767133    
   1144000   304.57201     -1715951.5      0             -1715516.9      49.259138    
   1145000   296.48723     -1715953.2      0             -1715530.1      31.538928    
   1146000   304.23997     -1715949        0             -1715514.9      20.53389     
   1147000   299.67271     -1715949.4      0             -1715521.8      23.089699    
   1148000   296.09584     -1715944.5      0             -1715522        27.624869    
   1149000   295.85572     -1715945        0             -1715522.8      9.4506498    
   1150000   299.58257     -1715947.6      0             -1715520.2      9.3119828    
   1151000   299.34706     -1715945.6      0             -1715518.5      14.376784    
   1152000   298.62997     -1715946.9      0             -1715520.8      1.3398982    
   1153000   297.13529     -1715950.1      0             -1715526.1      19.432801    
   1154000   302.37263     -1715947        0             -1715515.5      90.860727    
   1155000   302.57355     -1715954.9      0             -1715523.1      51.383605    
   1156000   301.02274     -1715953.7      0             -1715524.2      42.310973    
   1157000   299.07034     -1715950.6      0             -1715523.8      49.27231     
   1158000   300.88936     -1715947        0             -1715517.6      65.047046    
   1159000   300.93637     -1715948.5      0             -1715519.1      39.584701    
   1160000   297.98318     -1715950.7      0             -1715525.5      71.021981    
   1161000   297.9626      -1715951.7      0             -1715526.6      45.205307    
   1162000   299.87767     -1715945.5      0             -1715517.6      23.239938    
   1163000   298.91561     -1715950.9      0             -1715524.4      57.64895     
   1164000   300.86358     -1715952.4      0             -1715523.1      68.141492    
   1165000   302.31541     -1715949.5      0             -1715518.1      65.039487    
   1166000   298.48355     -1715949.2      0             -1715523.3      34.528245    
   1167000   301.8426      -1715949.4      0             -1715518.7      15.743991    
   1168000   305.33058     -1715949.7      0             -1715514.1     -14.217875    
   1169000   298.92705     -1715950.4      0             -1715523.9      7.0911819    
   1170000   303.52505     -1715951.1      0             -1715518        14.872596    
   1171000   302.72529     -1715949.8      0             -1715517.8      20.829093    
   1172000   301.67437     -1715949.7      0             -1715519.2     -17.926888    
   1173000   301.45234     -1715946.7      0             -1715516.6     -14.046853    
   1174000   301.34945     -1715948.8      0             -1715518.8      34.294392    
   1175000   298.77555     -1715950.5      0             -1715524.1      30.483213    
   1176000   298.60005     -1715947.6      0             -1715521.5      56.252921    
   1177000   295.83166     -1715941.2      0             -1715519        9.12505      
   1178000   297.55505     -1715948.6      0             -1715524.1      24.620266    
   1179000   297.46738     -1715952.8      0             -1715528.3      37.36061     
   1180000   298.08225     -1715949.5      0             -1715524.2      25.948115    
   1181000   301.53001     -1715945.7      0             -1715515.4      42.599866    
   1182000   299.71269     -1715950.9      0             -1715523.2      35.990961    
   1183000   298.69062     -1715950.2      0             -1715524        95.390473    
   1184000   303.98265     -1715951.6      0             -1715517.9      53.468502    
   1185000   297.48997     -1715951.6      0             -1715527.1      60.478192    
   1186000   299.03375     -1715951.4      0             -1715524.7      52.462644    
   1187000   301.43888     -1715950.6      0             -1715520.4      10.785098    
   1188000   298.10703     -1715950.1      0             -1715524.8     -1.389168     
   1189000   301.71309     -1715953.4      0             -1715522.9      29.809662    
   1190000   301.00145     -1715947.6      0             -1715518.1     -1.0324708    
   1191000   297.87804     -1715951.3      0             -1715526.3     -14.951311    
   1192000   301.22037     -1715946.2      0             -1715516.4      15.207392    
   1193000   303.04719     -1715948.1      0             -1715515.7      25.840346    
   1194000   297.79345     -1715945.5      0             -1715520.5      34.3811      
   1195000   299.989       -1715947.3      0             -1715519.3      30.05318     
   1196000   294.30507     -1715944.8      0             -1715524.9      18.601103    
   1197000   304.09693     -1715947.9      0             -1715514        33.480776    
   1198000   300.01077     -1715946.5      0             -1715518.4      33.158605    
   1199000   305.57985     -1715947.2      0             -1715511.2      23.912874    
   1200000   298.32        -1715945.5      0             -1715519.8      46.187363    
Loop time of 45881.9 on 1280 procs for 80000 steps with 11040 atoms

Performance: 0.151 ns/day, 159.312 hours/ns, 1.744 timesteps/s, 19.249 katom-step/s
100.0% CPU use with 1280 MPI tasks x 1 OpenMP threads

MPI task timing breakdown:
Section |  min time  |  avg time  |  max time  |%varavg| %total
---------------------------------------------------------------
Pair    | 0.13939    | 3630.8     | 44290      |13324.1 |  7.91
Bond    | 0.0031409  | 0.0061529  | 0.03185    |   7.0 |  0.00
Neigh   | 0.011392   | 0.10089    | 3.5602     |  92.6 |  0.00
Comm    | 0.50847    | 1217.3     | 21484      |9966.3 |  2.65
Output  | 0.50203    | 5.2141     | 10.241     | 127.3 |  0.01
Modify  | 5.6226     | 41021      | 45869      |5277.1 | 89.41
Other   |            | 7.109      |            |       |  0.02

Nlocal:          8.625 ave         249 max           0 min
Histogram: 1136 8 66 55 7 1 2 1 2 2
Nghost:        77.7875 ave        1365 max           0 min
Histogram: 1014 53 168 15 9 7 5 5 2 2
Neighs:              0 ave           0 max           0 min
Histogram: 1280 0 0 0 0 0 0 0 0 0
FullNghs:      880.348 ave       46107 max           0 min
Histogram: 1155 101 7 8 2 1 2 1 2 1

Total # of neighbors = 1126846
Ave neighs/atom = 102.06938
Ave special neighs/atom = 0
Neighbor list builds = 3719
Dangerous builds = 0

write_restart nvt_prod.restart.*
System init for write_restart ...
write_data nvt_prod_final.lammps-data
System init for write_data ...

Total wall time: 12:45:13
