LAMMPS data file via write_data, version 4 Feb 2025, timestep = 1200000, units = metal

11040 atoms
3 atom types

0 154.00799999999998 xlo xhi
0 148.2 ylo yhi
0 151.07609208607428 zlo zhi

Masses

1 12.01099999691024
2 1.007999999740698
3 15.99899999588435

Atoms # full

6539 0 1 0 4.358102958346236 1.7253101319059225 88.48848900177173 1 0 1
6582 0 1 0 2.896232108050082 4.193756274331569 88.37175466308044 1 0 1
6591 0 1 0 4.3446216467840815 4.1844607180850995 88.50604247858881 1 0 1
6521 0 1 0 2.180199364492203 2.9252497859867326 88.32814507062298 1 0 1
6530 0 1 0 2.92421329528268 1.6732066901307006 88.40883745695007 1 0 1
6520 0 1 0 0.7324330232689267 2.941529708014994 88.25383335701454 1 0 1
6529 0 1 0 2.1902682737083765 0.43674538881524066 88.49593636049359 1 0 1
6518 0 1 0 0.7389821909260234 0.37234350308837644 88.43413630289699 1 0 1
6603 0 1 0 6.5116415049919665 17.815629456194777 87.99033524525933 1 0 1
6519 0 1 0 0.03284132105596509 1.6701713477041347 88.38887617838698 1 0 1
7218 0 1 0 9.3089392349474 0.48858965030439433 88.70071327815009 1 0 1
7271 0 1 0 8.59076649626101 4.248720332812276 88.76678772567112 1 0 1
7220 0 1 0 9.38018156601952 2.986546045836522 88.7463559097096 1 0 1
7219 0 1 0 8.615733571722304 1.7492798480359166 88.65304679361152 1 0 1
6540 0 1 0 5.059471058651133 2.9363356606161375 88.56034463214907 1 0 1
6538 0 1 0 5.063326249672166 0.48228678096904065 88.57208189540566 1 0 1
7262 0 1 0 7.143524737803932 4.21373970424478 88.73564575935573 1 0 1
6481 0 1 0 6.485801571492037 2.9694718996075014 88.66357173482676 1 0 1
7210 0 1 0 7.183076268109988 1.7400806299627847 88.6103527101531 1 0 1
6489 0 1 0 6.487517006978812 0.4888241770941396 88.60897936118504 1 0 1
6583 0 1 0 2.2228635712629634 5.398185881111763 88.214952939833 1 0 1
6572 0 1 0 0.8015968027325707 5.353001961114552 88.07501894009806 1 0 1
6585 0 1 0 2.187023549102193 7.850616168288004 88.11249652249685 1 0 1
6584 0 1 0 2.9031437106375626 6.626459205708131 88.25432888572483 1 0 1
6586 0 1 0 2.8722946417146886 9.105613162992265 88.01505441841711 1 0 1
6595 0 1 0 4.313727101273006 9.133239887408058 88.1914106414617 1 0 1
6593 0 1 0 4.339154110938932 6.6849499777516685 88.2801121022327 1 0 1
6574 0 1 0 0.7822301020001126 7.862689955833692 87.9657933742171 1 0 1
7332 0 1 0 9.346138187135766 17.795339576481034 88.16423313137001 1 0 1
7270 0 1 0 7.196752795410581 14.092239696701036 88.27534958334577 1 0 1
7273 0 1 0 8.589632897660486 6.647401157213675 88.79875214801353 1 0 1
7274 0 1 0 9.31338492601126 7.90425046309946 88.73547681226695 1 0 1
7272 0 1 0 9.329274037072885 5.43762909169863 88.78425731018248 1 0 1
6594 0 1 0 5.039723348223995 7.92726453173642 88.31152127365245 1 0 1
6592 0 1 0 5.080753928763839 5.456755307490254 88.47290480615304 1 0 1
7275 0 1 0 8.603299667361712 9.174872587400527 88.64963525918513 1 0 1
6543 0 1 0 6.4704262908466985 5.436646986022693 88.6366751921201 1 0 1
7264 0 1 0 7.158510207832734 6.696225190643449 88.60259252975631 1 0 1
6545 0 1 0 6.4525302925952674 7.950794848033545 88.47145542917941 1 0 1
7266 0 1 0 7.209642395041494 9.166199059774648 88.4793620636517 1 0 1
6597 0 1 0 4.351987739609388 11.570823649969824 88.10229610693786 1 0 1
6589 0 1 0 2.246665775911573 12.806622156396553 87.70463520924292 1 0 1
6588 0 1 0 2.9038084816489493 11.541540633443132 87.88809648879081 1 0 1
6587 0 1 0 2.1677271699865908 10.29769850708871 87.78255509067387 1 0 1
6576 0 1 0 0.7725053915383365 10.317595990846874 87.6909433117566 1 0 1
6578 0 1 0 0.8080428036014475 12.728229784817676 87.56440536276793 1 0 1
7279 0 1 0 8.635284491674108 14.099556942413543 88.39495202977358 1 0 1
6596 0 1 0 5.053905272329565 10.351563979571122 88.20108748881916 1 0 1
6598 0 1 0 5.082572668876702 12.795851974212608 88.16335068514547 1 0 1
7277 0 1 0 8.649357551138142 11.610381641080936 88.47245129809923 1 0 1
7278 0 1 0 9.379320348466448 12.865032419987525 88.44363947265819 1 0 1
7276 0 1 0 9.302036620156656 10.398810106185019 88.57394746917899 1 0 1
6549 0 1 0 6.49731394617032 12.837920693190135 88.34062982010892 1 0 1
6547 0 1 0 6.4914538037697955 10.420142694290998 88.41658337707523 1 0 1
7268 0 1 0 7.228577812480257 11.636940005895669 88.38367153275931 1 0 1
6599 0 1 0 4.3919706567561105 14.010573573648674 87.8245838515661 1 0 1
6590 0 1 0 2.97120846177351 14.004962313186539 87.67378667296308 1 0 1
6581 0 1 0 2.271267278821549 15.263786812609288 87.63206618805451 1 0 1
6642 0 1 0 2.95181110093185 16.522685036536785 87.69698166142626 1 0 1
6651 0 1 0 4.331313376179449 16.511642665709836 87.86386590438305 1 0 1
6643 0 1 0 2.24408972806542 17.758474264914536 87.67169028827611 1 0 1
6580 0 1 0 0.810953579550401 15.260156000962173 87.5261435462329 1 0 1
6632 0 1 0 0.8600394358465812 17.754039535323024 87.63038338213957 1 0 1
6600 0 1 0 5.1000678948173555 15.267709745484748 87.94863922210828 1 0 1
6541 0 1 0 6.449514025861553 15.35854198901638 88.15486044297641 1 0 1
7331 0 1 0 8.618722438574613 16.568551558345106 88.23104261243358 1 0 1
7322 0 1 0 7.207240106219329 16.599641101464385 88.1194562841019 1 0 1
7280 0 1 0 9.31949207034377 15.384253087862243 88.33455079952984 1 0 1
6652 0 1 0 5.081173155374076 17.744866374375693 87.82335619541132 1 0 1
6573 0 1 0 0.11456195152371265 6.5543621800972875 87.95681779574025 1 0 1
6579 0 1 0 0.12672292503859975 13.982745030025164 87.49303642918218 1 0 1
6571 0 1 0 0.0765750570783423 4.15948987814241 88.12011958182744 1 0 1
6577 0 1 0 0.12218896736288011 11.532621748808301 87.52559602410963 1 0 1
6631 0 1 0 0.1608127080897677 16.468511231031304 87.49339319338331 1 0 1
6575 0 1 0 0.034076700607474746 9.072976095740271 87.75267712626435 1 0 1
6647 0 1 0 2.30992685674355 22.682724771399975 87.58002372514767 1 0 1
6646 0 1 0 3.0067246818392723 21.49632522661866 87.62971520202665 1 0 1
6655 0 1 0 4.42228947990647 21.538875831306925 87.76920628382389 1 0 1
6645 0 1 0 2.290554330560697 20.252726751579324 87.72056679133827 1 0 1
6636 0 1 0 0.8725768602303441 22.68451634610717 87.43251008587346 1 0 1
6634 0 1 0 0.8677921600231607 20.217338278232894 87.59605079835212 1 0 1
6653 0 1 0 4.403455960784262 18.978168163141152 87.78576871697332 1 0 1
6644 0 1 0 2.971028329254177 18.96217962848828 87.68810473502224 1 0 1
6665 0 1 0 6.499089746128441 32.623685905343315 87.95651285839004 1 0 1
6691 0 1 0 0.09966866042088346 28.900094843276086 87.57241719147162 1 0 1
6656 0 1 0 5.051849497309737 22.793761018423826 87.85904044301235 1 0 1
6654 0 1 0 5.159526455095646 20.252622590673294 87.79414020572034 1 0 1
7336 0 1 0 9.364732728712173 22.702640942583397 88.00225114535594 1 0 1
7335 0 1 0 8.699294861213337 21.451586279833172 88.00374841317046 1 0 1
7334 0 1 0 9.409162159837045 20.242593015971316 88.20155076814102 1 0 1
6607 0 1 0 6.515738916809686 22.718886675410474 87.86315422137193 1 0 1
6605 0 1 0 6.568937793381877 20.259232670248846 87.92089237188416 1 0 1
7326 0 1 0 7.242021980567403 21.473525697395498 87.89984192252616 1 0 1
7324 0 1 0 7.25414814318392 19.049836983057347 88.00051577765183 1 0 1
7333 0 1 0 8.64963658439215 19.039054593361158 88.14817760055838 1 0 1
6648 0 1 0 2.9515254113826552 23.92857572375851 87.7104636406567 1 0 1
6657 0 1 0 4.366413770637522 24.00693165552544 87.80964963050664 1 0 1
6650 0 1 0 2.9603726536050314 26.43244823795098 87.7711093531097 1 0 1
6659 0 1 0 4.3980362609549974 26.46940785891623 87.83725922113864 1 0 1
6649 0 1 0 2.2543012961532036 25.20224881672611 87.61807780210907 1 0 1
6641 0 1 0 2.2464707117112295 27.663633957655392 87.69919267685013 1 0 1
6640 0 1 0 0.8339774535979184 27.669641596149226 87.60745243114897 1 0 1
6638 0 1 0 0.8462784440064067 25.14801649268659 87.48519110687295 1 0 1
7388 0 1 0 7.200370915898486 36.37659317056226 88.32617275134172 1 0 1
7397 0 1 0 8.604564777845173 36.400045879687376 88.47694905188608 1 0 1
6660 0 1 0 5.137694866218657 27.72946205964069 87.95941066412578 1 0 1
7337 0 1 0 8.670634075180125 23.921931463128598 87.93535844453308 1 0 1
7328 0 1 0 7.241984424224879 23.969162949898788 87.89439351600025 1 0 1
6601 0 1 0 6.55139127429376 27.73826386509578 87.91212459227135 1 0 1
7330 0 1 0 7.262187152288082 26.456104899736992 87.84372714424171 1 0 1
7340 0 1 0 9.412147846412882 27.730996759915026 87.93933579106847 1 0 1
7339 0 1 0 8.644224676490607 26.423364980738963 87.89807715143411 1 0 1
7338 0 1 0 9.392486937308453 25.210020611854386 87.92850286981292 1 0 1
6658 0 1 0 5.108742133003668 25.222933168199297 87.8636031314589 1 0 1
6609 0 1 0 6.514343683941629 25.21587623175524 87.8974716344095 1 0 1
6711 0 1 0 4.368046194111151 28.89780203002036 87.73897893047756 1 0 1
6702 0 1 0 2.9392124050900663 28.87819135173322 87.68028180069814 1 0 1
6704 0 1 0 2.92919793594327 31.35663079587466 87.89095396941617 1 0 1
6713 0 1 0 4.338861964777035 31.3746724512461 87.78288238018547 1 0 1
6703 0 1 0 2.2120477982421187 30.07326545092989 87.70288961464314 1 0 1
6692 0 1 0 0.8087787401889566 30.09475842280523 87.69457059427087 1 0 1
7396 0 1 0 9.345689985884482 35.06528599469906 88.4257184863872 1 0 1
7394 0 1 0 9.324406628460736 32.64359019827009 88.20084992789893 1 0 1
6663 0 1 0 6.5222416385618125 30.147846321670784 87.82238907155082 1 0 1
7382 0 1 0 7.237398140532312 28.954152611983954 87.79751763177336 1 0 1
7391 0 1 0 8.654012322608835 28.928872581193495 87.83201300999237 1 0 1
7392 0 1 0 9.36675031118219 30.19258514438507 87.85938963060985 1 0 1
7393 0 1 0 8.624937175549332 31.423815582559175 87.97418723439942 1 0 1
6712 0 1 0 5.091315071036572 30.146312822056405 87.7957058891734 1 0 1
7384 0 1 0 7.1925195379480025 31.394306657576855 87.90182254140906 1 0 1
6694 0 1 0 0.8034235088918451 32.57947177577659 87.94552233211789 1 0 1
6705 0 1 0 2.2298420649673574 32.56490937386541 88.03031743493413 1 0 1
6717 0 1 0 4.313458924382806 36.35820845377234 88.12381408367634 1 0 1
6708 0 1 0 2.904781407399868 36.296420811713645 88.12777641405602 1 0 1
6707 0 1 0 2.1932660697508597 35.06474528408921 88.16711569603186 1 0 1
6706 0 1 0 2.922579293255784 33.81531867878756 88.12667738556424 1 0 1
6715 0 1 0 4.369031964480199 33.891317736052635 88.09096197437204 1 0 1
6696 0 1 0 0.7302593264607004 35.070880867011134 88.09244036893068 1 0 1
6697 0 1 0 0.04496173526224981 36.31774347513223 88.0662951397605 1 0 1
7386 0 1 0 7.185089442775 33.863157225704384 87.98445402231651 1 0 1
6667 0 1 0 6.491192870916081 35.11355845833421 88.10242157132654 1 0 1
7395 0 1 0 8.64309386841682 33.87978874758966 88.2106104221025 1 0 1
6716 0 1 0 5.077197403806444 35.15237529290937 88.11603798976445 1 0 1
6714 0 1 0 5.070316191060984 32.66258354741145 88.02175560452682 1 0 1
6633 0 1 0 0.11788071528396551 19.000273591603747 87.55679413071597 1 0 1
6639 0 1 0 0.1187939893083044 26.428189783935174 87.50997667635514 1 0 1
6635 0 1 0 0.11293057233972449 21.444409063112513 87.49798071372525 1 0 1
6637 0 1 0 0.10930536477271295 23.909493652558528 87.35620788614942 1 0 1
6693 0 1 0 0.07687760721192957 31.324377315211805 87.81938352589178 1 0 1
6695 0 1 0 0.08077242860456278 33.825324111354206 88.0149188236038 1 0 1
6710 0 1 0 2.8717234207322564 38.799529531317745 88.39107917629154 1 0 1
6771 0 1 0 4.386261616359848 41.32383358944226 88.29337920477619 1 0 1
6762 0 1 0 2.960830445762928 41.27299276103093 88.25579688276477 1 0 1
6701 0 1 0 2.251051753680009 40.047611284293765 88.22876468895203 1 0 1
6719 0 1 0 4.312383689168426 38.82698857476774 88.37686576744993 1 0 1
6700 0 1 0 0.8183154619763354 40.038653004810946 88.0107938115085 1 0 1
6709 0 1 0 2.1869500514155518 37.532912521772985 88.29124310453422 1 0 1
6698 0 1 0 0.7763236961458748 37.555017375705155 88.09861330153552 1 0 1
6721 0 1 0 6.468618193842166 52.36367315795325 87.59748784952002 1 0 1
6811 0 1 0 0.006903748440775222 53.66131953129722 87.49003768045057 1 0 1
6720 0 1 0 5.073256838218227 40.024074753791794 88.31305544697501 1 0 1
6661 0 1 0 6.461922533548852 40.06641040861915 88.24739164032546 1 0 1
7390 0 1 0 7.253299367294917 38.892703895224805 88.23778934093156 1 0 1
7442 0 1 0 7.204522632738045 41.307960253452435 88.38751738568055 1 0 1
7451 0 1 0 8.63076159868932 41.31549147197267 88.39248096114605 1 0 1
7399 0 1 0 8.625885580784765 38.87155314717589 88.37880011260708 1 0 1
7400 0 1 0 9.360813767263329 40.079844763267594 88.45758090516631 1 0 1
7398 0 1 0 9.32678563900061 37.60401664880747 88.5076484867784 1 0 1
6669 0 1 0 6.492069713302407 37.672848533842064 88.35620737521005 1 0 1
6718 0 1 0 5.012390667010344 37.60042615538763 88.26362790706037 1 0 1
6763 0 1 0 2.236757544194647 42.508236726683606 88.04774522816567 1 0 1
6752 0 1 0 0.8085653377343303 42.53337058402561 87.81235430246977 1 0 1
6773 0 1 0 4.349821449756364 43.75384359927243 88.1272851089194 1 0 1
6775 0 1 0 4.332324428564747 46.21035710339436 87.90294363150483 1 0 1
6766 0 1 0 2.884569835724249 46.18854315510591 87.68654071727632 1 0 1
6765 0 1 0 2.2492747696713353 44.944457840531165 87.74813806624583 1 0 1
6754 0 1 0 0.7869663747674144 44.995875226272304 87.57005507928676 1 0 1
6764 0 1 0 2.921391036716209 43.72858221215919 88.0189416149367 1 0 1
6772 0 1 0 5.058466376935904 42.564480967936106 88.2648272434986 1 0 1
6774 0 1 0 5.035827631963859 44.96140464122666 88.04297026762758 1 0 1
7452 0 1 0 9.30450262964324 42.53469472827448 88.17212009854056 1 0 1
6723 0 1 0 6.508624461038408 42.51439019982027 88.16159847231047 1 0 1
7444 0 1 0 7.217975810056199 43.75534960421777 87.97188506129518 1 0 1
7454 0 1 0 9.34256316994083 44.940344838493246 87.71940976658367 1 0 1
7453 0 1 0 8.640877907587969 43.73029272989125 87.94961094855907 1 0 1
6725 0 1 0 6.499147908034261 44.9576473724974 87.9879424483737 1 0 1
7446 0 1 0 7.186494296470281 46.22319845704884 87.83067645706163 1 0 1
7455 0 1 0 8.609598782977745 46.1891033311802 87.71932401621063 1 0 1
6777 0 1 0 4.278935590180618 48.69635536524375 87.787241974914 1 0 1
6768 0 1 0 2.9122099571317555 48.65616128550507 87.74155638840827 1 0 1
6767 0 1 0 2.189689692586072 47.44902502541431 87.65683092298977 1 0 1
6769 0 1 0 2.173715669505573 49.92740631256477 87.66567334391311 1 0 1
6758 0 1 0 0.6980113617449489 49.929751980317405 87.59192440066957 1 0 1
6756 0 1 0 0.8118038740426725 47.46126508001459 87.56736054619631 1 0 1
6757 0 1 0 0.016028070054482733 48.6641071832377 87.58647437060047 1 0 1
6776 0 1 0 5.021152509476273 47.45068023858056 87.76875356389587 1 0 1
6778 0 1 0 5.015951245482705 49.91566240656208 87.68933033654534 1 0 1
6727 0 1 0 6.445723929384555 47.4669248393217 87.87373551312837 1 0 1
6729 0 1 0 6.433011409585256 49.93170112800866 87.61657172644492 1 0 1
7448 0 1 0 7.196955201495871 48.653730185005614 87.75007221301274 1 0 1
7458 0 1 0 9.297896437832858 49.875791091380705 87.52228756725293 1 0 1
7456 0 1 0 9.3178357157615 47.42730343141958 87.50661771773532 1 0 1
7457 0 1 0 8.625346133348438 48.64872246027987 87.5834698655001 1 0 1
6770 0 1 0 2.858151984715357 51.1869091604196 87.65362980510213 1 0 1
6779 0 1 0 4.306395203705045 51.130788270261434 87.66423330503545 1 0 1
6823 0 1 0 2.1784914381264504 54.885936692181396 87.4531370933576 1 0 1
6760 0 1 0 0.7165277469949127 52.42600669812032 87.54223723569173 1 0 1
6812 0 1 0 0.7236461609170441 54.84592254069926 87.52723625102156 1 0 1
6761 0 1 0 2.1476727650002236 52.3894456634592 87.61808689346222 1 0 1
6831 0 1 0 4.304802606344174 53.578652899273216 87.54316279820138 1 0 1
6822 0 1 0 2.85646031822221 53.62278242181801 87.506507641914 1 0 1
7512 0 1 0 9.312584193870325 54.79937399201405 87.26606373516788 1 0 1
7450 0 1 0 7.127774235749557 51.14024334137057 87.59283112647846 1 0 1
6783 0 1 0 6.441936007940182 54.8155640503724 87.51280158471954 1 0 1
7502 0 1 0 7.204871578774524 53.62324854406263 87.50009738879893 1 0 1
7460 0 1 0 9.342658557681139 52.33905759745664 87.3839828602084 1 0 1
6832 0 1 0 5.029809333184029 54.849033410734 87.50868571887902 1 0 1
7511 0 1 0 8.62210757688381 53.553059932489425 87.34697508719162 1 0 1
7459 0 1 0 8.563791867886316 51.127448018221074 87.4462432069863 1 0 1
6780 0 1 0 5.012538490268993 52.36833286744921 87.59020326227922 1 0 1
6699 0 1 0 0.10414412347423473 38.776512876705006 87.94121370221438 1 0 1
6751 0 1 0 0.0824914397690893 41.28370201231066 87.8581612121045 1 0 1
6753 0 1 0 0.03946959671355268 43.776424781840696 87.58360042618472 1 0 1
6755 0 1 0 0.05747688365204073 46.224871161890036 87.44761782609012 1 0 1
6816 0 1 0 0.7554300680477181 59.82959403340222 87.73802282329645 1 0 1
6825 0 1 0 2.1346220168509342 57.2969181060638 87.57363524437568 1 0 1
6826 0 1 0 2.8598345943877037 58.55328488479369 87.57775508733019 1 0 1
6827 0 1 0 2.1404599926412082 59.77856435682644 87.64232715618765 1 0 1
6814 0 1 0 0.6909220283873393 57.35893290528771 87.57765651285597 1 0 1
6835 0 1 0 4.293730179793382 58.54046951121424 87.49025266390186 1 0 1
6833 0 1 0 4.34928210942619 56.05484894762083 87.44535603805895 1 0 1
6824 0 1 0 2.9039666269350355 56.08846091920599 87.44925036733406 1 0 1
7568 0 1 0 7.19435768133579 73.25286167302266 88.75710656093536 1 0 1
7513 0 1 0 8.560957464371741 56.09363427830015 87.26609630736289 1 0 1
6834 0 1 0 5.0353142104051445 57.29849257213305 87.34279647319553 1 0 1
6836 0 1 0 5.056343888355847 59.75691236237877 87.48951036895346 1 0 1
6785 0 1 0 6.438116175252515 57.29819280226891 87.27668272172396 1 0 1
7506 0 1 0 7.196212886005407 58.53325646265276 87.28819448707786 1 0 1
7514 0 1 0 9.326766970111247 57.285746075841715 87.27532091202815 1 0 1
6787 0 1 0 6.4825202799533095 59.746035508427674 87.36786504642623 1 0 1
7515 0 1 0 8.649717567427532 58.52606241335118 87.24856243733686 1 0 1
7516 0 1 0 9.32359800777263 59.75546869163404 87.27896531418475 1 0 1
7504 0 1 0 7.165894630204405 56.104863738084134 87.4035496682059 1 0 1
6829 0 1 0 2.1236333275178056 62.192163498498275 88.00377494467213 1 0 1
6830 0 1 0 2.8370652753163568 63.41801006881938 88.10824066913898 1 0 1
6821 0 1 0 2.164304975618845 64.60930472034792 88.37821534910368 1 0 1
6820 0 1 0 0.699439686459133 64.63504977420261 88.27169666912721 1 0 1
6818 0 1 0 0.7083736797707634 62.23265113605365 87.98709008467013 1 0 1
6837 0 1 0 4.283767259754545 60.9966673686333 87.76242287497166 1 0 1
6828 0 1 0 2.845057401614203 60.98467399873298 87.77732181316486 1 0 1
6839 0 1 0 4.289451717872154 63.40659186277309 88.11229612696867 1 0 1
6873 0 1 0 0.08264821542687059 68.36594692874975 88.46899259559197 1 0 1
6840 0 1 0 5.040344158317248 64.62551427484964 88.23777114493713 1 0 1
6838 0 1 0 5.004363547484472 62.16009858919265 87.91576933081639 1 0 1
7508 0 1 0 7.144035958970333 61.00753744471606 87.45552286662333 1 0 1
7517 0 1 0 8.606334987247354 60.99827558565013 87.35789343353196 1 0 1
6781 0 1 0 6.456905895780313 64.62767059254867 88.11691485542187 1 0 1
6789 0 1 0 6.433465862957157 62.19551624237466 87.68105190390695 1 0 1
7518 0 1 0 9.315290854693128 62.22638173376425 87.38734863010832 1 0 1
7510 0 1 0 7.183686049953772 63.41070057132644 87.90418312496374 1 0 1
7519 0 1 0 8.58108230500581 63.48469699452493 87.71103495580704 1 0 1
7520 0 1 0 9.300635960516512 64.66941756293116 87.75129159298274 1 0 1
6884 0 1 0 2.961689130224828 68.29640303174132 88.50377818887895 1 0 1
6872 0 1 0 0.7816233254658222 67.10887619793587 88.48399467374293 1 0 1
6882 0 1 0 2.9012406413207006 65.84340195986978 88.43911309127606 1 0 1
6891 0 1 0 4.309683201406133 65.82006954643475 88.34559412153587 1 0 1
6893 0 1 0 4.359946639563236 68.32988354889298 88.40272059601641 1 0 1
6883 0 1 0 2.211738751235975 67.0665784231904 88.5172509120432 1 0 1
6817 0 1 0 0.015445848579683836 61.006422875139904 87.84073745504001 1 0 1
6892 0 1 0 5.030243706160614 67.10237373720685 88.31043429200511 1 0 1
6843 0 1 0 6.492404506280465 67.10054740467577 88.31949893642953 1 0 1
7562 0 1 0 7.163625869992848 65.84070533391133 88.16513018396445 1 0 1
7564 0 1 0 7.203400547329897 68.34991013205772 88.36782561391654 1 0 1
7572 0 1 0 9.367150893333289 67.10891102296608 88.10608599677873 1 0 1
7573 0 1 0 8.645088496422487 68.33404778355543 88.32312054532011 1 0 1
7571 0 1 0 8.578894708973504 65.87644771111707 88.03528053982441 1 0 1
6874 0 1 0 0.7800417715353098 69.57130275263151 88.45346907504185 1 0 1
6885 0 1 0 2.189759635749705 69.55262946376092 88.51477300321727 1 0 1
6888 0 1 0 2.9298463879224013 73.2632168165651 88.55495175195543 1 0 1
6886 0 1 0 2.9206789753573115 70.75456229398235 88.5106457270963 1 0 1
6895 0 1 0 4.340865415409112 70.75300387951059 88.37909929458264 1 0 1
6897 0 1 0 4.360776681838638 73.2938110486662 88.55745715183993 1 0 1
6887 0 1 0 2.1789744511878717 72.01774673098751 88.50846832752411 1 0 1
6876 0 1 0 0.7648762046601237 72.00306484243386 88.6590451857253 1 0 1
6845 0 1 0 6.508414308423966 69.59628122130601 88.28996236709293 1 0 1
7576 0 1 0 9.336526477786178 72.06774023556518 88.43703199517073 1 0 1
7566 0 1 0 7.222063484581072 70.85068662510784 88.30959239231028 1 0 1
6896 0 1 0 5.040412633910054 72.00444063874978 88.53234064315512 1 0 1
6894 0 1 0 5.06991807106747 69.53879929798411 88.26533510498602 1 0 1
6847 0 1 0 6.487226924081532 72.02693564286257 88.56139483996476 1 0 1
7574 0 1 0 9.326670718260202 69.57791634574168 88.19248093180893 1 0 1
7575 0 1 0 8.642841945979557 70.85152127797377 88.33466581947687 1 0 1
7577 0 1 0 8.645100168985834 73.23204025418151 88.66372970179302 1 0 1
6815 0 1 0 0.035223573902985084 58.59546082712026 87.54720624172367 1 0 1
6875 0 1 0 0.06861849347066891 70.82902060576923 88.48660629029904 1 0 1
6899 0 1 0 4.404253429394167 75.69367509309727 88.91455284408893 1 0 1
6951 0 1 0 4.415617016600447 78.21574077552262 89.15939443891203 1 0 1
6890 0 1 0 2.9398079877833805 75.72810304578745 88.89954200130555 1 0 1
6881 0 1 0 2.246902468069909 76.94474780226881 88.99766213676153 1 0 1
6942 0 1 0 2.9894661911953784 78.18629493187748 89.16612441140116 1 0 1
6880 0 1 0 0.7848270239887175 76.93027569374141 89.0522714039378 1 0 1
6889 0 1 0 2.202145541280289 74.47313392996185 88.82385127268788 1 0 1
6878 0 1 0 0.7655309088663997 74.45689288440452 88.91072870285554 1 0 1
6931 0 1 0 0.1583556330105863 78.22259476319093 89.2433477307804 1 0 1
6898 0 1 0 5.091731561480539 74.49076948836846 88.75175477518712 1 0 1
6900 0 1 0 5.100386625783832 76.90634247367053 89.00713245152438 1 0 1
6841 0 1 0 6.546830103153859 76.94219939452337 89.02704145206515 1 0 1
7622 0 1 0 7.2470185413397425 78.1807720248068 89.12886941857619 1 0 1
7570 0 1 0 7.232977546331762 75.70273230686634 88.84755999403552 1 0 1
7579 0 1 0 8.64349069598159 75.67184782976423 88.90167098755335 1 0 1
7580 0 1 0 9.39015045379437 76.9499030213656 88.94768479995669 1 0 1
7631 0 1 0 8.695009472905998 78.19171414919717 89.02826911547112 1 0 1
6849 0 1 0 6.502100791125827 74.48743247262773 88.79554170416294 1 0 1
7578 0 1 0 9.361989736155557 74.48762992344416 88.65074893458903 1 0 1
6932 0 1 0 0.8560534099209159 79.42054523868418 89.41935192607122 1 0 1
6943 0 1 0 2.278228164961141 79.45304027174222 89.24732661492862 1 0 1
6953 0 1 0 4.410882075783112 80.64339435224291 89.34139903272973 1 0 1
6944 0 1 0 3.000243310394328 80.7187029581731 89.3990350733269 1 0 1
6955 0 1 0 4.404938636368334 83.10803444097355 89.60644503914558 1 0 1
6946 0 1 0 2.9962717119857807 83.1510768281978 89.58850294503368 1 0 1
6945 0 1 0 2.2540257194027378 81.91664817403108 89.53731426705987 1 0 1
6934 0 1 0 0.7962555752590837 81.9226755815623 89.58730232536789 1 0 1
6933 0 1 0 0.12976766563057052 80.68860604472947 89.50415527431224 1 0 1
6935 0 1 0 0.08660019275175232 83.14793036070424 89.67380446388138 1 0 1
6954 0 1 0 5.128960690544906 81.89490154391716 89.30579708126938 1 0 1
6952 0 1 0 5.158646595727146 79.40015794636352 89.23254114161827 1 0 1
7632 0 1 0 9.429097316998567 79.41881940220416 88.95192740593204 1 0 1
7633 0 1 0 8.733101803339325 80.70564071818136 88.96824158411668 1 0 1
7634 0 1 0 9.46681370668935 81.9158914481522 88.96363492023971 1 0 1
7624 0 1 0 7.278044479791264 80.67509096193793 89.17997426040947 1 0 1
7635 0 1 0 8.717457937230174 83.17613564936669 89.18695077538506 1 0 1
6905 0 1 0 6.554439401044825 81.89293174421329 89.31229345650468 1 0 1
7626 0 1 0 7.289677659510445 83.13733876747307 89.45310714964064 1 0 1
6903 0 1 0 6.588175126469265 79.42128321528338 89.15471200292677 1 0 1
6949 0 1 0 2.2421723373651736 86.9081750337634 89.85689075071137 1 0 1
6957 0 1 0 4.46566728205092 85.63253999734427 89.61606943351175 1 0 1
6948 0 1 0 2.988511719298024 85.69321508539889 89.6809469763175 1 0 1
6936 0 1 0 0.8197428748281227 84.39332613039231 89.58991652270706 1 0 1
6947 0 1 0 2.266602840421195 84.45671680690188 89.65276534172601 1 0 1
6938 0 1 0 0.8333214019995535 86.87435071628707 89.80636812355426 1 0 1
6937 0 1 0 0.12767029015551626 85.60794157599165 89.68258940381739 1 0 1
6956 0 1 0 5.161594872407094 84.35313126530842 89.51791858735844 1 0 1
6958 0 1 0 5.185531352884226 86.92358613390546 89.72576367524653 1 0 1
7637 0 1 0 8.682801213915361 85.63339023315376 89.22711275985627 1 0 1
6909 0 1 0 6.592550250161966 86.86177267902016 89.45746863859014 1 0 1
6907 0 1 0 6.598291679248749 84.35182070029661 89.54501606436757 1 0 1
7638 0 1 0 9.416089181189234 86.90622482084596 89.10961107175758 1 0 1
7628 0 1 0 7.274912646258444 85.61575867997355 89.39608114009432 1 0 1
7636 0 1 0 9.4335677608256 84.39405494689649 89.14218444369905 1 0 1
6991 0 1 0 0.09115554301458774 90.52242748728548 90.21500788927509 1 0 1
6959 0 1 0 4.440297132088134 88.14308560687616 89.81913241841163 1 0 1
6950 0 1 0 2.9980006171414026 88.1302345452804 89.96065834463323 1 0 1
6941 0 1 0 2.228786747784412 89.30703032508102 90.11524213450653 1 0 1
7011 0 1 0 4.331702266849146 90.57944107066797 89.9204491981883 1 0 1
7002 0 1 0 2.9391148496711743 90.56880739190905 90.0507060151149 1 0 1
7003 0 1 0 2.205967048600438 91.83206992843748 90.12870534847154 1 0 1
6992 0 1 0 0.8131197559650947 91.79950233565135 90.18597544124465 1 0 1
6940 0 1 0 0.7946660464892495 89.28646822085337 90.08002400328458 1 0 1
6939 0 1 0 0.09395546247895066 88.04314655432763 89.94842382017939 1 0 1
7682 0 1 0 7.276562552220555 90.57701323389718 89.31857283189879 1 0 1
7691 0 1 0 8.648969529154224 90.53383041135504 89.1177857094908 1 0 1
7012 0 1 0 5.020972395926917 91.78027584817016 89.70679867588693 1 0 1
6960 0 1 0 5.1233428211257515 89.37380253320595 89.76935195275487 1 0 1
6963 0 1 0 6.476603374974019 91.7935041547993 89.50156446667629 1 0 1
7640 0 1 0 9.37916447087285 89.33096910141782 89.09371459171523 1 0 1
7639 0 1 0 8.663631197663094 88.10563740942074 89.15322124966328 1 0 1
7692 0 1 0 9.301190707628539 91.7728552625035 89.05073845797287 1 0 1
7630 0 1 0 7.300057971591373 88.06455884524367 89.39805555930184 1 0 1
6901 0 1 0 6.543145827934707 89.33974228874914 89.43038456983416 1 0 1
6879 0 1 0 0.05986398356262425 75.70224382943587 89.02351850987911 1 0 1
7015 0 1 0 4.3653362084405645 95.48355999988128 89.57103714236582 1 0 1
7006 0 1 0 2.9852624631393603 95.52754778643185 89.84034393036656 1 0 1
7007 0 1 0 2.280433208110504 96.72582330948711 89.91342778111151 1 0 1
6996 0 1 0 0.866537002468188 96.73498887899969 90.1334936615471 1 0 1
7005 0 1 0 2.2675287090042353 94.30754982402848 90.05379362747995 1 0 1
6994 0 1 0 0.827613404503392 94.28693231357316 90.22297539096095 1 0 1
7013 0 1 0 4.380324058802133 93.06643525986792 89.68998089553826 1 0 1
7004 0 1 0 2.956258937670159 93.07553501770285 90.08721562367484 1 0 1
6993 0 1 0 0.11695388275489829 93.01243902708615 90.24723323014136 1 0 1
6995 0 1 0 0.14654150295699675 95.52909701007805 90.28453345753535 1 0 1
7016 0 1 0 5.140959383852996 96.73108826585559 89.55931973496077 1 0 1
7014 0 1 0 5.098828192414235 94.30769264191588 89.4520938003736 1 0 1
7693 0 1 0 8.608040302001587 93.0423825931603 88.97919421815436 1 0 1
6965 0 1 0 6.5362237625005175 94.29507202969019 89.20443064250406 1 0 1
6967 0 1 0 6.583713397428222 96.78327858866477 89.35730336915272 1 0 1
7686 0 1 0 7.27738362854032 95.52721952776226 89.16293610026828 1 0 1
7695 0 1 0 8.680100629257115 95.55367656997521 89.00213697028803 1 0 1
7694 0 1 0 9.387222408028638 94.26558324313706 88.88106536577436 1 0 1
7696 0 1 0 9.384613364091598 96.7427806331349 89.03011266459076 1 0 1
7684 0 1 0 7.179590011053168 92.98887027716124 89.22821342188688 1 0 1
7017 0 1 0 4.3820528949342705 97.97905380875272 89.61502746157257 1 0 1
7008 0 1 0 2.958597121171663 97.97514579712593 89.86122800233596 1 0 1
6998 0 1 0 0.8189477413189342 99.22101598624887 90.08353667744973 1 0 1
7010 0 1 0 3.0272953838995913 100.4429974771649 89.87663839418944 1 0 1
7019 0 1 0 4.436807665300258 100.45697426969957 89.7334961270352 1 0 1
7001 0 1 0 2.2606642393454757 101.69325572935921 89.96602804988767 1 0 1
7009 0 1 0 2.301582073639617 99.22787018855676 89.93003680551548 1 0 1
7064 0 1 0 3.0453243702915955 105.42931756527734 90.15528071664228 1 0 1
6999 0 1 0 0.12204275297893238 100.45164941750326 90.17171629969533 1 0 1
6997 0 1 0 0.09377353771381615 97.97547620701783 90.19392893890907 1 0 1
7020 0 1 0 5.205873581273092 101.74364954490966 89.83525473215077 1 0 1
7018 0 1 0 5.106384642084569 99.2056655717642 89.57177365106044 1 0 1
7700 0 1 0 9.450509717337212 101.72629685914372 89.59979890760302 1 0 1
7688 0 1 0 7.32081589080658 98.01651309102898 89.41017857322694 1 0 1
7697 0 1 0 8.72935794038829 97.9713016741336 89.29124599678885 1 0 1
6961 0 1 0 6.642688638467962 101.71590410455048 89.75144176698664 1 0 1
6969 0 1 0 6.5692203631326676 99.22147510085323 89.44218676423604 1 0 1
7690 0 1 0 7.294034907921526 100.48166877305157 89.52389422687351 1 0 1
7699 0 1 0 8.737132328286423 100.46472304593254 89.51614501067647 1 0 1
7698 0 1 0 9.434430789492861 99.21667447133157 89.38579665686694 1 0 1
7027 0 1 0 6.62430393722495 109.04380163479252 90.2628204314455 1 0 1
7000 0 1 0 0.8446106271927822 101.64484288416256 90.17621107714426 1 0 1
7066 0 1 0 3.0845687002824222 107.79792872960296 90.54063335097544 1 0 1
7073 0 1 0 4.485956334915704 105.40637307393891 90.08442289863486 1 0 1
7748 0 1 0 7.363028381162038 110.32372647013713 90.15863824254663 1 0 1
7071 0 1 0 4.482429178178819 102.95862543831669 89.97137087142433 1 0 1