LAMMPS (4 Feb 2025)
OMP_NUM_THREADS environment is not set. Defaulting to 1 thread. (src/comm.cpp:99)
  using 1 OpenMP thread(s) per MPI task
# LAMMPS script for running NVT simulation

units       metal
dimension   3
boundary    p p p
atom_style  full
atom_modify map yes

newton      on

read_data   ../start.lammps-data
Reading data file ...
  orthogonal box = (0 0 0) to (154.008 148.19427 151.07317)
  16 by 8 by 13 MPI processor grid
  reading atoms ...
  14640 atoms
  reading velocities ...
  14640 velocities
Finding 1-2 1-3 1-4 neighbors ...
  special bond factors lj:    0        0        0       
  special bond factors coul:  0        0        0       
     0 = max # of 1-2 neighbors
     0 = max # of 1-3 neighbors
     0 = max # of 1-4 neighbors
     1 = max # of special neighbors
  special bonds CPU = 5.648 seconds
  read_data CPU = 5.993 seconds

pair_style  symmetrix/mace
pair_coeff  * * ../../../../00-common/models/ch2o-dens-inv_swa-1-6-8.json C H O
Loading MACE model from '../../../../00-common/models/ch2o-dens-inv_swa-1-6-8.json' ... success
  mapping LAMMPS type 1 (C) to MACE type 1
  mapping LAMMPS type 2 (H) to MACE type 0
  mapping LAMMPS type 3 (O) to MACE type 2

variable t equal step

group graphene type 1
8640 atoms in group graphene
group H2O type 2 3
6000 atoms in group H2O

thermo 1000

######### NVT equilibration for 80 ps #############

dump DUMP1 all atom 100 nvt_equi.lammpstrj
timestep 0.001
fix NVT1 H2O nvt temp 300 300 0.1
run 80000
Neighbor list info ...
  update: every = 1 steps, delay = 0 steps, check = yes
  max neighbors/atom: 2000, page size: 100000
  master list distance cutoff = 8
  ghost atom cutoff = 8
  binsize = 4, bins = 39 38 38
  1 neighbor lists, perpetual/occasional/extra = 1 0 0
  (1) pair symmetrix/mace, perpetual
      attributes: full, newton on
      pair build: full/bin
      stencil: full/bin/3d
      bin: standard
Per MPI rank memory allocation (min/avg/max) = 5.934 | 6.175 | 8.883 Mbytes
   Step          Temp          E_pair         E_mol          TotEng         Press     
         0   120.24637     -2279774.3      0             -2279546.8      390.34388    
      1000   124.36168     -2279843.2      0             -2279607.9      230.28965    
      2000   123.68741     -2279852        0             -2279617.9      302.72064    
      3000   123.42112     -2279867.8      0             -2279634.2      282.73375    
      4000   123.11728     -2279862.3      0             -2279629.3      284.57479    
      5000   121.68614     -2279867.7      0             -2279637.5      274.15246    
      6000   122.31464     -2279865        0             -2279633.6      268.85885    
      7000   123.29377     -2279875.7      0             -2279642.4      282.66007    
      8000   121.50138     -2279872        0             -2279642.1      280.76665    
      9000   122.73187     -2279870.1      0             -2279637.8      271.15608    
     10000   124.23243     -2279875.9      0             -2279640.9      282.20651    
     11000   121.39506     -2279863        0             -2279633.3      279.77143    
     12000   123.13491     -2279869.7      0             -2279636.7      289.16489    
     13000   123.23935     -2279870.8      0             -2279637.6      290.92523    
     14000   119.29376     -2279874.3      0             -2279648.5      258.26808    
     15000   123.35729     -2279873.3      0             -2279639.8      313.42041    
     16000   123.85171     -2279865.6      0             -2279631.2      288.99895    
     17000   121.84435     -2279878.6      0             -2279648.1      275.15051    
     18000   124.94942     -2279877.4      0             -2279640.9      297.05346    
     19000   121.21363     -2279874.6      0             -2279645.3      279.62291    
     20000   124.07163     -2279878.1      0             -2279643.3      276.92177    
     21000   121.57345     -2279876.9      0             -2279646.9      292.88868    
     22000   120.45448     -2279870        0             -2279642.1      287.56739    
     23000   123.48231     -2279869.1      0             -2279635.5      288.82725    
     24000   121.69857     -2279873.2      0             -2279642.9      288.9095     
     25000   123.52702     -2279870.8      0             -2279637.1      288.00265    
     26000   122.94134     -2279867.9      0             -2279635.3      273.32693    
     27000   122.74297     -2279870        0             -2279637.7      264.73425    
     28000   123.43923     -2279869.9      0             -2279636.3      281.29972    
     29000   120.86969     -2279865.9      0             -2279637.2      275.51999    
     30000   123.13859     -2279863.8      0             -2279630.8      298.05527    
     31000   123.04536     -2279873.2      0             -2279640.3      279.33912    
     32000   121.44527     -2279868.6      0             -2279638.8      280.05105    
     33000   124.47919     -2279875.5      0             -2279639.9      279.21486    
     34000   122.76677     -2279873.5      0             -2279641.1      289.909      
     35000   121.66853     -2279866.6      0             -2279636.4      284.32514    
     36000   124.46209     -2279866.4      0             -2279630.9      278.00746    
     37000   122.99094     -2279870.9      0             -2279638.1      267.44242    
     38000   122.66174     -2279869        0             -2279636.9      292.90653    
     39000   123.18367     -2279863.6      0             -2279630.5      276.35952    
     40000   122.80863     -2279867.6      0             -2279635.2      295.54914    
     41000   124.85054     -2279869.2      0             -2279632.9      281.42816    
     42000   122.41758     -2279868.9      0             -2279637.2      275.07182    
     43000   121.1875      -2279871.3      0             -2279642        281.89911    
     44000   124.076       -2279867.7      0             -2279632.9      268.35797    
     45000   122.65394     -2279867.9      0             -2279635.8      288.21271    
     46000   121.72811     -2279868.6      0             -2279638.2      291.193      
     47000   123.90582     -2279869        0             -2279634.6      284.30186    
     48000   124.1563      -2279869.9      0             -2279634.9      278.87708    
     49000   124.11976     -2279875        0             -2279640.2      291.32501    
     50000   123.6148      -2279871.4      0             -2279637.5      260.23865    
     51000   122.76262     -2279874.4      0             -2279642.1      280.70256    
     52000   124.57574     -2279869.2      0             -2279633.5      273.05203    
     53000   122.08392     -2279869.9      0             -2279638.9      274.89609    
     54000   122.58915     -2279863.1      0             -2279631.1      284.0778     
     55000   120.79233     -2279871.6      0             -2279643        266.33413    
     56000   124.74995     -2279871.5      0             -2279635.5      303.22574    
     57000   121.2894      -2279869.3      0             -2279639.7      279.4317     
     58000   121.98231     -2279872.1      0             -2279641.2      300.63964    
     59000   121.49358     -2279865.6      0             -2279635.7      273.11481    
     60000   122.56659     -2279870.1      0             -2279638.2      270.81782    
     61000   123.6418      -2279868.8      0             -2279634.9      265.09225    
     62000   123.6112      -2279873        0             -2279639.1      275.31854    
     63000   121.55637     -2279864.9      0             -2279634.9      290.94093    
     64000   123.60521     -2279865        0             -2279631.1      268.31549    
     65000   124.47915     -2279865.1      0             -2279629.6      257.82088    
     66000   124.50186     -2279872.3      0             -2279636.7      264.23901    
     67000   120.36131     -2279868.5      0             -2279640.7      260.22808    
     68000   125.43301     -2279873.5      0             -2279636.1      276.67874    
     69000   124.53706     -2279874.7      0             -2279639        272.03186    
     70000   122.42767     -2279869.8      0             -2279638.1      277.08552    
     71000   123.12908     -2279872.5      0             -2279639.5      285.57048    
     72000   124.83257     -2279868.6      0             -2279632.4      286.94472    
     73000   126.24794     -2279868.3      0             -2279629.4      281.25327    
     74000   122.2233      -2279870        0             -2279638.7      295.84504    
     75000   121.6417      -2279874        0             -2279643.8      264.9037     
     76000   123.49914     -2279870.6      0             -2279637        278.99358    
     77000   122.41015     -2279878.1      0             -2279646.5      271.53578    
     78000   123.21061     -2279874.1      0             -2279641        281.16631    
     79000   124.09442     -2279877.1      0             -2279642.3      285.58081    
     80000   124.00523     -2279875.5      0             -2279640.9      298.14164    
Loop time of 76269.8 on 1664 procs for 80000 steps with 14640 atoms

Performance: 0.091 ns/day, 264.826 hours/ns, 1.049 timesteps/s, 15.356 katom-step/s
100.0% CPU use with 1664 MPI tasks x 1 OpenMP threads

MPI task timing breakdown:
Section |  min time  |  avg time  |  max time  |%varavg| %total
---------------------------------------------------------------
Pair    | 0.2417     | 6341.7     | 75310      |19448.2 |  8.31
Bond    | 0.0051025  | 0.0089415  | 0.042203   |   6.7 |  0.00
Neigh   | 0.020801   | 0.21141    | 8.0064     | 176.6 |  0.00
Comm    | 0.71861    | 2429.2     | 39020      |14057.6 |  3.19
Output  | 1.1565     | 8.4693     | 16.181     | 154.7 |  0.01
Modify  | 280.92     | 67475      | 76245      |7962.8 | 88.47
Other   |            | 15.37      |            |       |  0.02

Nlocal:        8.79808 ave         261 max           0 min
Histogram: 1516 4 101 6 6 6 4 5 8 8
Nghost:        85.8413 ave        1747 max           0 min
Histogram: 1365 189 41 17 19 11 7 4 5 6
Neighs:              0 ave           0 max           0 min
Histogram: 1664 0 0 0 0 0 0 0 0 0
FullNghs:      1115.22 ave       51601 max           0 min
Histogram: 1542 81 6 8 1 5 5 2 8 6

Total # of neighbors = 1855728
Ave neighs/atom = 126.75738
Ave special neighs/atom = 0
Neighbor list builds = 4006
Dangerous builds = 0

write_restart nvt_equi.restart.*
System init for write_restart ...
write_data nvt_equi_final.lammps-data
System init for write_data ...

Total wall time: 21:11:49
