LAMMPS data file via write_data, version 4 Feb 2025, timestep = 80000, units = metal

14640 atoms
3 atom types

0 154.00799999999998 xlo xhi
0 148.19426709559315 ylo yhi
0 151.07316997686289 zlo zhi

Masses

1 12.01099999691024
2 1.007999999740698
3 15.99899999588435

Atoms # full

1 0 1 0 0 0 0 0 0 0
2 0 1 0 1.426 0 0 0 0 0
5 0 1 0 0 2.469904451593219 0 0 0 0
6 0 1 0 1.426 2.469904451593219 0 0 0 0
7 0 1 0 2.139 1.2349522257966095 0 0 0 0
8 0 1 0 3.5649999999999995 1.2349522257966095 0 0 0 0
11 0 1 0 2.139 3.704856677389828 0 0 0 0
12 0 1 0 3.5649999999999995 3.704856677389828 0 0 0 0
241 0 1 0 4.278 0 0 0 0 0
245 0 1 0 4.278 2.469904451593219 0 0 0 0
242 0 1 0 5.704 0 0 0 0 0
246 0 1 0 5.704 2.469904451593219 0 0 0 0
247 0 1 0 6.417 1.2349522257966095 0 0 0 0
248 0 1 0 7.843 1.2349522257966095 0 0 0 0
251 0 1 0 6.417 3.704856677389828 0 0 0 0
252 0 1 0 7.843 3.704856677389828 0 0 0 0
481 0 1 0 8.556 0 0 0 0 0
485 0 1 0 8.556 2.469904451593219 0 0 0 0
9 0 1 0 0 4.939808903186438 0 0 0 0
10 0 1 0 1.426 4.939808903186438 0 0 0 0
13 0 1 0 0 7.409713354779656 0 0 0 0
14 0 1 0 1.426 7.409713354779656 0 0 0 0
15 0 1 0 2.139 6.174761128983047 0 0 0 0
16 0 1 0 3.5649999999999995 6.174761128983047 0 0 0 0
19 0 1 0 2.139 8.644665580576266 0 0 0 0
20 0 1 0 3.5649999999999995 8.644665580576266 0 0 0 0
249 0 1 0 4.278 4.939808903186438 0 0 0 0
253 0 1 0 4.278 7.409713354779656 0 0 0 0
250 0 1 0 5.704 4.939808903186438 0 0 0 0
254 0 1 0 5.704 7.409713354779656 0 0 0 0
255 0 1 0 6.417 6.174761128983047 0 0 0 0
256 0 1 0 7.843 6.174761128983047 0 0 0 0
259 0 1 0 6.417 8.644665580576266 0 0 0 0
260 0 1 0 7.843 8.644665580576266 0 0 0 0
489 0 1 0 8.556 4.939808903186438 0 0 0 0
493 0 1 0 8.556 7.409713354779656 0 0 0 0
17 0 1 0 0 9.879617806372876 0 0 0 0
18 0 1 0 1.426 9.879617806372876 0 0 0 0
21 0 1 0 0 12.349522257966095 0 0 0 0
22 0 1 0 1.426 12.349522257966095 0 0 0 0
23 0 1 0 2.139 11.114570032169485 0 0 0 0
24 0 1 0 3.5649999999999995 11.114570032169485 0 0 0 0
27 0 1 0 2.139 13.584474483762703 0 0 0 0
28 0 1 0 3.5649999999999995 13.584474483762703 0 0 0 0
257 0 1 0 4.278 9.879617806372876 0 0 0 0
261 0 1 0 4.278 12.349522257966095 0 0 0 0
258 0 1 0 5.704 9.879617806372876 0 0 0 0
262 0 1 0 5.704 12.349522257966095 0 0 0 0
263 0 1 0 6.417 11.114570032169485 0 0 0 0
264 0 1 0 7.843 11.114570032169485 0 0 0 0
267 0 1 0 6.417 13.584474483762703 0 0 0 0
268 0 1 0 7.843 13.584474483762703 0 0 0 0
497 0 1 0 8.556 9.879617806372876 0 0 0 0
501 0 1 0 8.556 12.349522257966095 0 0 0 0
25 0 1 0 0 14.819426709559313 0 0 0 0
26 0 1 0 1.426 14.819426709559313 0 0 0 0
29 0 1 0 0 17.289331161152532 0 0 0 0
30 0 1 0 1.426 17.289331161152532 0 0 0 0
31 0 1 0 2.139 16.054378935355924 0 0 0 0
32 0 1 0 3.5649999999999995 16.054378935355924 0 0 0 0
265 0 1 0 4.278 14.819426709559313 0 0 0 0
269 0 1 0 4.278 17.289331161152532 0 0 0 0
266 0 1 0 5.704 14.819426709559313 0 0 0 0
270 0 1 0 5.704 17.289331161152532 0 0 0 0
271 0 1 0 6.417 16.054378935355924 0 0 0 0
272 0 1 0 7.843 16.054378935355924 0 0 0 0
505 0 1 0 8.556 14.819426709559313 0 0 0 0
509 0 1 0 8.556 17.289331161152532 0 0 0 0
33 0 1 0 0 19.75923561274575 0 0 0 0
34 0 1 0 1.426 19.75923561274575 0 0 0 0
35 0 1 0 2.139 18.524283386949143 0 0 0 0
36 0 1 0 3.5649999999999995 18.524283386949143 0 0 0 0
37 0 1 0 0 22.22914006433897 0 0 0 0
38 0 1 0 1.426 22.22914006433897 0 0 0 0
39 0 1 0 2.139 20.994187838542363 0 0 0 0
40 0 1 0 3.5649999999999995 20.994187838542363 0 0 0 0
273 0 1 0 4.278 19.75923561274575 0 0 0 0
277 0 1 0 4.278 22.22914006433897 0 0 0 0
274 0 1 0 5.704 19.75923561274575 0 0 0 0
275 0 1 0 6.417 18.524283386949143 0 0 0 0
276 0 1 0 7.843 18.524283386949143 0 0 0 0
278 0 1 0 5.704 22.22914006433897 0 0 0 0
279 0 1 0 6.417 20.994187838542363 0 0 0 0
280 0 1 0 7.843 20.994187838542363 0 0 0 0
513 0 1 0 8.556 19.75923561274575 0 0 0 0
517 0 1 0 8.556 22.22914006433897 0 0 0 0
41 0 1 0 0 24.69904451593219 0 0 0 0
42 0 1 0 1.426 24.69904451593219 0 0 0 0
43 0 1 0 2.139 23.464092290135582 0 0 0 0
44 0 1 0 3.5649999999999995 23.464092290135582 0 0 0 0
45 0 1 0 0 27.16894896752541 0 0 0 0
46 0 1 0 1.426 27.16894896752541 0 0 0 0
47 0 1 0 2.139 25.9339967417288 0 0 0 0
48 0 1 0 3.5649999999999995 25.9339967417288 0 0 0 0
281 0 1 0 4.278 24.69904451593219 0 0 0 0
285 0 1 0 4.278 27.16894896752541 0 0 0 0
282 0 1 0 5.704 24.69904451593219 0 0 0 0
283 0 1 0 6.417 23.464092290135582 0 0 0 0
284 0 1 0 7.843 23.464092290135582 0 0 0 0
286 0 1 0 5.704 27.16894896752541 0 0 0 0
287 0 1 0 6.417 25.9339967417288 0 0 0 0
288 0 1 0 7.843 25.9339967417288 0 0 0 0
521 0 1 0 8.556 24.69904451593219 0 0 0 0
525 0 1 0 8.556 27.16894896752541 0 0 0 0
49 0 1 0 0 29.638853419118625 0 0 0 0
50 0 1 0 1.426 29.638853419118625 0 0 0 0
51 0 1 0 2.139 28.403901193322017 0 0 0 0
52 0 1 0 3.5649999999999995 28.403901193322017 0 0 0 0
53 0 1 0 0 32.10875787071185 0 0 0 0
54 0 1 0 1.426 32.10875787071185 0 0 0 0
55 0 1 0 2.139 30.87380564491524 0 0 0 0
56 0 1 0 3.5649999999999995 30.87380564491524 0 0 0 0
289 0 1 0 4.278 29.638853419118625 0 0 0 0
293 0 1 0 4.278 32.10875787071185 0 0 0 0
290 0 1 0 5.704 29.638853419118625 0 0 0 0
291 0 1 0 6.417 28.403901193322017 0 0 0 0
292 0 1 0 7.843 28.403901193322017 0 0 0 0
294 0 1 0 5.704 32.10875787071185 0 0 0 0
295 0 1 0 6.417 30.87380564491524 0 0 0 0
296 0 1 0 7.843 30.87380564491524 0 0 0 0
529 0 1 0 8.556 29.638853419118625 0 0 0 0
533 0 1 0 8.556 32.10875787071185 0 0 0 0
57 0 1 0 0 34.578662322305064 0 0 0 0
58 0 1 0 1.426 34.578662322305064 0 0 0 0
59 0 1 0 2.139 33.34371009650845 0 0 0 0
60 0 1 0 3.5649999999999995 33.34371009650845 0 0 0 0
63 0 1 0 2.139 35.813614548101675 0 0 0 0
64 0 1 0 3.5649999999999995 35.813614548101675 0 0 0 0
297 0 1 0 4.278 34.578662322305064 0 0 0 0
298 0 1 0 5.704 34.578662322305064 0 0 0 0
299 0 1 0 6.417 33.34371009650845 0 0 0 0
300 0 1 0 7.843 33.34371009650845 0 0 0 0
303 0 1 0 6.417 35.813614548101675 0 0 0 0
304 0 1 0 7.843 35.813614548101675 0 0 0 0
537 0 1 0 8.556 34.578662322305064 0 0 0 0
61 0 1 0 0 37.04856677389829 0 0 0 0
62 0 1 0 1.426 37.04856677389829 0 0 0 0
65 0 1 0 0 39.5184712254915 0 0 0 0
66 0 1 0 1.426 39.5184712254915 0 0 0 0
67 0 1 0 2.139 38.28351899969489 0 0 0 0
68 0 1 0 3.5649999999999995 38.28351899969489 0 0 0 0
71 0 1 0 2.139 40.75342345128811 0 0 0 0
72 0 1 0 3.5649999999999995 40.75342345128811 0 0 0 0
301 0 1 0 4.278 37.04856677389829 0 0 0 0
305 0 1 0 4.278 39.5184712254915 0 0 0 0
302 0 1 0 5.704 37.04856677389829 0 0 0 0
306 0 1 0 5.704 39.5184712254915 0 0 0 0
307 0 1 0 6.417 38.28351899969489 0 0 0 0
308 0 1 0 7.843 38.28351899969489 0 0 0 0
311 0 1 0 6.417 40.75342345128811 0 0 0 0
312 0 1 0 7.843 40.75342345128811 0 0 0 0
541 0 1 0 8.556 37.04856677389829 0 0 0 0
545 0 1 0 8.556 39.5184712254915 0 0 0 0
69 0 1 0 0 41.98837567708472 0 0 0 0
70 0 1 0 1.426 41.98837567708472 0 0 0 0
73 0 1 0 0 44.45828012867794 0 0 0 0
74 0 1 0 1.426 44.45828012867794 0 0 0 0
75 0 1 0 2.139 43.22332790288133 0 0 0 0
76 0 1 0 3.5649999999999995 43.22332790288133 0 0 0 0
79 0 1 0 2.139 45.693232354474546 0 0 0 0
80 0 1 0 3.5649999999999995 45.693232354474546 0 0 0 0
309 0 1 0 4.278 41.98837567708472 0 0 0 0
313 0 1 0 4.278 44.45828012867794 0 0 0 0
310 0 1 0 5.704 41.98837567708472 0 0 0 0
314 0 1 0 5.704 44.45828012867794 0 0 0 0
315 0 1 0 6.417 43.22332790288133 0 0 0 0
316 0 1 0 7.843 43.22332790288133 0 0 0 0
319 0 1 0 6.417 45.693232354474546 0 0 0 0
320 0 1 0 7.843 45.693232354474546 0 0 0 0
549 0 1 0 8.556 41.98837567708472 0 0 0 0
553 0 1 0 8.556 44.45828012867794 0 0 0 0
77 0 1 0 0 46.92818458027116 0 0 0 0
78 0 1 0 1.426 46.92818458027116 0 0 0 0
81 0 1 0 0 49.39808903186438 0 0 0 0
82 0 1 0 1.426 49.39808903186438 0 0 0 0
83 0 1 0 2.139 48.16313680606777 0 0 0 0
84 0 1 0 3.5649999999999995 48.16313680606777 0 0 0 0
87 0 1 0 2.139 50.633041257660985 0 0 0 0
88 0 1 0 3.5649999999999995 50.633041257660985 0 0 0 0
317 0 1 0 4.278 46.92818458027116 0 0 0 0
321 0 1 0 4.278 49.39808903186438 0 0 0 0
318 0 1 0 5.704 46.92818458027116 0 0 0 0
322 0 1 0 5.704 49.39808903186438 0 0 0 0
323 0 1 0 6.417 48.16313680606777 0 0 0 0
324 0 1 0 7.843 48.16313680606777 0 0 0 0
327 0 1 0 6.417 50.633041257660985 0 0 0 0
328 0 1 0 7.843 50.633041257660985 0 0 0 0
557 0 1 0 8.556 46.92818458027116 0 0 0 0
561 0 1 0 8.556 49.39808903186438 0 0 0 0
85 0 1 0 0 51.867993483457596 0 0 0 0
86 0 1 0 1.426 51.867993483457596 0 0 0 0
89 0 1 0 0 54.33789793505082 0 0 0 0
90 0 1 0 1.426 54.33789793505082 0 0 0 0
91 0 1 0 2.139 53.10294570925421 0 0 0 0
92 0 1 0 3.5649999999999995 53.10294570925421 0 0 0 0
95 0 1 0 2.139 55.57285016084742 0 0 0 0
96 0 1 0 3.5649999999999995 55.57285016084742 0 0 0 0
325 0 1 0 4.278 51.867993483457596 0 0 0 0
329 0 1 0 4.278 54.33789793505082 0 0 0 0
326 0 1 0 5.704 51.867993483457596 0 0 0 0
330 0 1 0 5.704 54.33789793505082 0 0 0 0
331 0 1 0 6.417 53.10294570925421 0 0 0 0
332 0 1 0 7.843 53.10294570925421 0 0 0 0
335 0 1 0 6.417 55.57285016084742 0 0 0 0
336 0 1 0 7.843 55.57285016084742 0 0 0 0
565 0 1 0 8.556 51.867993483457596 0 0 0 0
569 0 1 0 8.556 54.33789793505082 0 0 0 0
93 0 1 0 0 56.807802386644035 0 0 0 0
94 0 1 0 1.426 56.807802386644035 0 0 0 0
97 0 1 0 0 59.27770683823725 0 0 0 0
98 0 1 0 1.426 59.27770683823725 0 0 0 0
99 0 1 0 2.139 58.04275461244064 0 0 0 0
100 0 1 0 3.5649999999999995 58.04275461244064 0 0 0 0
333 0 1 0 4.278 56.807802386644035 0 0 0 0
337 0 1 0 4.278 59.27770683823725 0 0 0 0
334 0 1 0 5.704 56.807802386644035 0 0 0 0
338 0 1 0 5.704 59.27770683823725 0 0 0 0
339 0 1 0 6.417 58.04275461244064 0 0 0 0
340 0 1 0 7.843 58.04275461244064 0 0 0 0
573 0 1 0 8.556 56.807802386644035 0 0 0 0
577 0 1 0 8.556 59.27770683823725 0 0 0 0
101 0 1 0 0 61.74761128983047 0 0 0 0
102 0 1 0 1.426 61.74761128983047 0 0 0 0
103 0 1 0 2.139 60.51265906403386 0 0 0 0
104 0 1 0 3.5649999999999995 60.51265906403386 0 0 0 0
105 0 1 0 0 64.2175157414237 0 0 0 0
106 0 1 0 1.426 64.2175157414237 0 0 0 0
107 0 1 0 2.139 62.982563515627085 0 0 0 0
108 0 1 0 3.5649999999999995 62.982563515627085 0 0 0 0
341 0 1 0 4.278 61.74761128983047 0 0 0 0
345 0 1 0 4.278 64.2175157414237 0 0 0 0
342 0 1 0 5.704 61.74761128983047 0 0 0 0
343 0 1 0 6.417 60.51265906403386 0 0 0 0
344 0 1 0 7.843 60.51265906403386 0 0 0 0
346 0 1 0 5.704 64.2175157414237 0 0 0 0
347 0 1 0 6.417 62.982563515627085 0 0 0 0
348 0 1 0 7.843 62.982563515627085 0 0 0 0
581 0 1 0 8.556 61.74761128983047 0 0 0 0
585 0 1 0 8.556 64.2175157414237 0 0 0 0
109 0 1 0 0 66.6874201930169 0 0 0 0
110 0 1 0 1.426 66.6874201930169 0 0 0 0
111 0 1 0 2.139 65.4524679672203 0 0 0 0
112 0 1 0 3.5649999999999995 65.4524679672203 0 0 0 0
113 0 1 0 0 69.15732464461013 0 0 0 0
114 0 1 0 1.426 69.15732464461013 0 0 0 0
115 0 1 0 2.139 67.92237241881352 0 0 0 0
116 0 1 0 3.5649999999999995 67.92237241881352 0 0 0 0
349 0 1 0 4.278 66.6874201930169 0 0 0 0
353 0 1 0 4.278 69.15732464461013 0 0 0 0
350 0 1 0 5.704 66.6874201930169 0 0 0 0
351 0 1 0 6.417 65.4524679672203 0 0 0 0
352 0 1 0 7.843 65.4524679672203 0 0 0 0
354 0 1 0 5.704 69.15732464461013 0 0 0 0
355 0 1 0 6.417 67.92237241881352 0 0 0 0
356 0 1 0 7.843 67.92237241881352 0 0 0 0
589 0 1 0 8.556 66.6874201930169 0 0 0 0
593 0 1 0 8.556 69.15732464461013 0 0 0 0
117 0 1 0 0 71.62722909620335 0 0 0 0
118 0 1 0 1.426 71.62722909620335 0 0 0 0
119 0 1 0 2.139 70.39227687040675 0 0 0 0
120 0 1 0 3.5649999999999995 70.39227687040675 0 0 0 0
123 0 1 0 2.139 72.86218132199997 0 0 0 0
124 0 1 0 3.5649999999999995 72.86218132199997 0 0 0 0
357 0 1 0 4.278 71.62722909620335 0 0 0 0
358 0 1 0 5.704 71.62722909620335 0 0 0 0
359 0 1 0 6.417 70.39227687040675 0 0 0 0
360 0 1 0 7.843 70.39227687040675 0 0 0 0
363 0 1 0 6.417 72.86218132199997 0 0 0 0
364 0 1 0 7.843 72.86218132199997 0 0 0 0
597 0 1 0 8.556 71.62722909620335 0 0 0 0
121 0 1 0 0 74.09713354779657 0 0 0 0
122 0 1 0 1.426 74.09713354779657 0 0 0 0
125 0 1 0 0 76.56703799938978 0 0 0 0
126 0 1 0 1.426 76.56703799938978 0 0 0 0
127 0 1 0 2.139 75.33208577359318 0 0 0 0
128 0 1 0 3.5649999999999995 75.33208577359318 0 0 0 0
131 0 1 0 2.139 77.8019902251864 0 0 0 0
132 0 1 0 3.5649999999999995 77.8019902251864 0 0 0 0
361 0 1 0 4.278 74.09713354779657 0 0 0 0
365 0 1 0 4.278 76.56703799938978 0 0 0 0
362 0 1 0 5.704 74.09713354779657 0 0 0 0
366 0 1 0 5.704 76.56703799938978 0 0 0 0
367 0 1 0 6.417 75.33208577359318 0 0 0 0
368 0 1 0 7.843 75.33208577359318 0 0 0 0
371 0 1 0 6.417 77.8019902251864 0 0 0 0
372 0 1 0 7.843 77.8019902251864 0 0 0 0
601 0 1 0 8.556 74.09713354779657 0 0 0 0
605 0 1 0 8.556 76.56703799938978 0 0 0 0
129 0 1 0 0 79.036942450983 0 0 0 0
130 0 1 0 1.426 79.036942450983 0 0 0 0
133 0 1 0 0 81.50684690257623 0 0 0 0
134 0 1 0 1.426 81.50684690257623 0 0 0 0
135 0 1 0 2.139 80.27189467677962 0 0 0 0
136 0 1 0 3.5649999999999995 80.27189467677962 0 0 0 0
139 0 1 0 2.139 82.74179912837283 0 0 0 0
140 0 1 0 3.5649999999999995 82.74179912837283 0 0 0 0
369 0 1 0 4.278 79.036942450983 0 0 0 0
373 0 1 0 4.278 81.50684690257623 0 0 0 0
370 0 1 0 5.704 79.036942450983 0 0 0 0
374 0 1 0 5.704 81.50684690257623 0 0 0 0
375 0 1 0 6.417 80.27189467677962 0 0 0 0
376 0 1 0 7.843 80.27189467677962 0 0 0 0
379 0 1 0 6.417 82.74179912837283 0 0 0 0
380 0 1 0 7.843 82.74179912837283 0 0 0 0
609 0 1 0 8.556 79.036942450983 0 0 0 0
613 0 1 0 8.556 81.50684690257623 0 0 0 0
137 0 1 0 0 83.97675135416944 0 0 0 0
138 0 1 0 1.426 83.97675135416944 0 0 0 0
141 0 1 0 0 86.44665580576266 0 0 0 0
142 0 1 0 1.426 86.44665580576266 0 0 0 0
143 0 1 0 2.139 85.21170357996606 0 0 0 0
144 0 1 0 3.5649999999999995 85.21170357996606 0 0 0 0
147 0 1 0 2.139 87.68160803155928 0 0 0 0
148 0 1 0 3.5649999999999995 87.68160803155928 0 0 0 0
377 0 1 0 4.278 83.97675135416944 0 0 0 0
381 0 1 0 4.278 86.44665580576266 0 0 0 0
378 0 1 0 5.704 83.97675135416944 0 0 0 0
382 0 1 0 5.704 86.44665580576266 0 0 0 0
383 0 1 0 6.417 85.21170357996606 0 0 0 0
384 0 1 0 7.843 85.21170357996606 0 0 0 0
387 0 1 0 6.417 87.68160803155928 0 0 0 0
388 0 1 0 7.843 87.68160803155928 0 0 0 0
617 0 1 0 8.556 83.97675135416944 0 0 0 0
621 0 1 0 8.556 86.44665580576266 0 0 0 0
145 0 1 0 0 88.91656025735588 0 0 0 0
146 0 1 0 1.426 88.91656025735588 0 0 0 0
149 0 1 0 0 91.3864647089491 0 0 0 0
150 0 1 0 1.426 91.3864647089491 0 0 0 0
151 0 1 0 2.139 90.1515124831525 0 0 0 0
152 0 1 0 3.5649999999999995 90.1515124831525 0 0 0 0
155 0 1 0 2.139 92.62141693474571 0 0 0 0
156 0 1 0 3.5649999999999995 92.62141693474571 0 0 0 0
385 0 1 0 4.278 88.91656025735588 0 0 0 0
389 0 1 0 4.278 91.3864647089491 0 0 0 0
386 0 1 0 5.704 88.91656025735588 0 0 0 0
390 0 1 0 5.704 91.3864647089491 0 0 0 0
391 0 1 0 6.417 90.1515124831525 0 0 0 0
392 0 1 0 7.843 90.1515124831525 0 0 0 0
395 0 1 0 6.417 92.62141693474571 0 0 0 0
396 0 1 0 7.843 92.62141693474571 0 0 0 0
625 0 1 0 8.556 88.91656025735588 0 0 0 0
629 0 1 0 8.556 91.3864647089491 0 0 0 0
153 0 1 0 0 93.85636916054231 0 0 0 0
154 0 1 0 1.426 93.85636916054231 0 0 0 0
157 0 1 0 0 96.32627361213554 0 0 0 0
158 0 1 0 1.426 96.32627361213554 0 0 0 0
159 0 1 0 2.139 95.09132138633893 0 0 0 0
160 0 1 0 3.5649999999999995 95.09132138633893 0 0 0 0
393 0 1 0 4.278 93.85636916054231 0 0 0 0
397 0 1 0 4.278 96.32627361213554 0 0 0 0
394 0 1 0 5.704 93.85636916054231 0 0 0 0
398 0 1 0 5.704 96.32627361213554 0 0 0 0
399 0 1 0 6.417 95.09132138633893 0 0 0 0
400 0 1 0 7.843 95.09132138633893 0 0 0 0
633 0 1 0 8.556 93.85636916054231 0 0 0 0
637 0 1 0 8.556 96.32627361213554 0 0 0 0
161 0 1 0 0 98.79617806372876 0 0 0 0
162 0 1 0 1.426 98.79617806372876 0 0 0 0
163 0 1 0 2.139 97.56122583793216 0 0 0 0
164 0 1 0 3.5649999999999995 97.56122583793216 0 0 0 0
165 0 1 0 0 101.26608251532197 0 0 0 0
166 0 1 0 1.426 101.26608251532197 0 0 0 0
167 0 1 0 2.139 100.03113028952536 0 0 0 0
168 0 1 0 3.5649999999999995 100.03113028952536 0 0 0 0
401 0 1 0 4.278 98.79617806372876 0 0 0 0
405 0 1 0 4.278 101.26608251532197 0 0 0 0
402 0 1 0 5.704 98.79617806372876 0 0 0 0
403 0 1 0 6.417 97.56122583793216 0 0 0 0
404 0 1 0 7.843 97.56122583793216 0 0 0 0
406 0 1 0 5.704 101.26608251532197 0 0 0 0
407 0 1 0 6.417 100.03113028952536 0 0 0 0
408 0 1 0 7.843 100.03113028952536 0 0 0 0
641 0 1 0 8.556 98.79617806372876 0 0 0 0
645 0 1 0 8.556 101.26608251532197 0 0 0 0
169 0 1 0 0 103.73598696691519 0 0 0 0
170 0 1 0 1.426 103.73598696691519 0 0 0 0
171 0 1 0 2.139 102.50103474111859 0 0 0 0
172 0 1 0 3.5649999999999995 102.50103474111859 0 0 0 0
173 0 1 0 0 106.20589141850841 0 0 0 0
174 0 1 0 1.426 106.20589141850841 0 0 0 0
175 0 1 0 2.139 104.97093919271181 0 0 0 0
176 0 1 0 3.5649999999999995 104.97093919271181 0 0 0 0
409 0 1 0 4.278 103.73598696691519 0 0 0 0
413 0 1 0 4.278 106.20589141850841 0 0 0 0
410 0 1 0 5.704 103.73598696691519 0 0 0 0
411 0 1 0 6.417 102.50103474111859 0 0 0 0
412 0 1 0 7.843 102.50103474111859 0 0 0 0
414 0 1 0 5.704 106.20589141850841 0 0 0 0
415 0 1 0 6.417 104.97093919271181 0 0 0 0
416 0 1 0 7.843 104.97093919271181 0 0 0 0
649 0 1 0 8.556 103.73598696691519 0 0 0 0
653 0 1 0 8.556 106.20589141850841 0 0 0 0
177 0 1 0 0 108.67579587010164 0 0 0 0
178 0 1 0 1.426 108.67579587010164 0 0 0 0
179 0 1 0 2.139 107.44084364430503 0 0 0 0
180 0 1 0 3.5649999999999995 107.44084364430503 0 0 0 0
181 0 1 0 0 111.14570032169485 0 0 0 0
182 0 1 0 1.426 111.14570032169485 0 0 0 0
183 0 1 0 2.139 109.91074809589824 0 0 0 0
184 0 1 0 3.5649999999999995 109.91074809589824 0 0 0 0
417 0 1 0 4.278 108.67579587010164 0 0 0 0
421 0 1 0 4.278 111.14570032169485 0 0 0 0
418 0 1 0 5.704 108.67579587010164 0 0 0 0
419 0 1 0 6.417 107.44084364430503 0 0 0 0
420 0 1 0 7.843 107.44084364430503 0 0 0 0
422 0 1 0 5.704 111.14570032169485 0 0 0 0
423 0 1 0 6.417 109.91074809589824 0 0 0 0
424 0 1 0 7.843 109.91074809589824 0 0 0 0
657 0 1 0 8.556 108.67579587010164 0 0 0 0
661 0 1 0 8.556 111.14570032169485 0 0 0 0
185 0 1 0 0 113.61560477328807 0 0 0 0
186 0 1 0 1.426 113.61560477328807 0 0 0 0
187 0 1 0 2.139 112.38065254749147 0 0 0 0
188 0 1 0 3.5649999999999995 112.38065254749147 0 0 0 0
191 0 1 0 2.139 114.85055699908469 0 0 0 0
192 0 1 0 3.5649999999999995 114.85055699908469 0 0 0 0
425 0 1 0 4.278 113.61560477328807 0 0 0 0
426 0 1 0 5.704 113.61560477328807 0 0 0 0
427 0 1 0 6.417 112.38065254749147 0 0 0 0
428 0 1 0 7.843 112.38065254749147 0 0 0 0
431 0 1 0 6.417 114.85055699908469 0 0 0 0
432 0 1 0 7.843 114.85055699908469 0 0 0 0
665 0 1 0 8.556 113.61560477328807 0 0 0 0
189 0 1 0 0 116.08550922488129 0 0 0 0
190 0 1 0 1.426 116.08550922488129 0 0 0 0
193 0 1 0 0 118.5554136764745 0 0 0 0
194 0 1 0 1.426 118.5554136764745 0 0 0 0
195 0 1 0 2.139 117.3204614506779 0 0 0 0
196 0 1 0 3.5649999999999995 117.3204614506779 0 0 0 0
199 0 1 0 2.139 119.79036590227112 0 0 0 0
200 0 1 0 3.5649999999999995 119.79036590227112 0 0 0 0
429 0 1 0 4.278 116.08550922488129 0 0 0 0
433 0 1 0 4.278 118.5554136764745 0 0 0 0
430 0 1 0 5.704 116.08550922488129 0 0 0 0
434 0 1 0 5.704 118.5554136764745 0 0 0 0
435 0 1 0 6.417 117.3204614506779 0 0 0 0
436 0 1 0 7.843 117.3204614506779 0 0 0 0
439 0 1 0 6.417 119.79036590227112 0 0 0 0
440 0 1 0 7.843 119.79036590227112 0 0 0 0
669 0 1 0 8.556 116.08550922488129 0 0 0 0
673 0 1 0 8.556 118.5554136764745 0 0 0 0
197 0 1 0 0 121.02531812806772 0 0 0 0
198 0 1 0 1.426 121.02531812806772 0 0 0 0
201 0 1 0 0 123.49522257966095 0 0 0 0
202 0 1 0 1.426 123.49522257966095 0 0 0 0
203 0 1 0 2.139 122.26027035386434 0 0 0 0
204 0 1 0 3.5649999999999995 122.26027035386434 0 0 0 0
207 0 1 0 2.139 124.73017480545757 0 0 0 0
208 0 1 0 3.5649999999999995 124.73017480545757 0 0 0 0
437 0 1 0 4.278 121.02531812806772 0 0 0 0
441 0 1 0 4.278 123.49522257966095 0 0 0 0
438 0 1 0 5.704 121.02531812806772 0 0 0 0
442 0 1 0 5.704 123.49522257966095 0 0 0 0
443 0 1 0 6.417 122.26027035386434 0 0 0 0
444 0 1 0 7.843 122.26027035386434 0 0 0 0
447 0 1 0 6.417 124.73017480545757 0 0 0 0
448 0 1 0 7.843 124.73017480545757 0 0 0 0
677 0 1 0 8.556 121.02531812806772 0 0 0 0
681 0 1 0 8.556 123.49522257966095 0 0 0 0
205 0 1 0 0 125.96512703125417 0 0 0 0
206 0 1 0 1.426 125.96512703125417 0 0 0 0
209 0 1 0 0 128.4350314828474 0 0 0 0
210 0 1 0 1.426 128.4350314828474 0 0 0 0
211 0 1 0 2.139 127.20007925705079 0 0 0 0
212 0 1 0 3.5649999999999995 127.20007925705079 0 0 0 0
445 0 1 0 4.278 125.96512703125417 0 0 0 0
449 0 1 0 4.278 128.4350314828474 0 0 0 0
446 0 1 0 5.704 125.96512703125417 0 0 0 0
450 0 1 0 5.704 128.4350314828474 0 0 0 0
451 0 1 0 6.417 127.20007925705079 0 0 0 0
452 0 1 0 7.843 127.20007925705079 0 0 0 0
685 0 1 0 8.556 125.96512703125417 0 0 0 0
689 0 1 0 8.556 128.4350314828474 0 0 0 0
213 0 1 0 0 130.9049359344406 0 0 0 0
214 0 1 0 1.426 130.9049359344406 0 0 0 0
215 0 1 0 2.139 129.669983708644 0 0 0 0
216 0 1 0 3.5649999999999995 129.669983708644 0 0 0 0
217 0 1 0 0 133.3748403860338 0 0 0 0
218 0 1 0 1.426 133.3748403860338 0 0 0 0
219 0 1 0 2.139 132.1398881602372 0 0 0 0
220 0 1 0 3.5649999999999995 132.1398881602372 0 0 0 0
453 0 1 0 4.278 130.9049359344406 0 0 0 0
457 0 1 0 4.278 133.3748403860338 0 0 0 0
454 0 1 0 5.704 130.9049359344406 0 0 0 0
455 0 1 0 6.417 129.669983708644 0 0 0 0
456 0 1 0 7.843 129.669983708644 0 0 0 0
458 0 1 0 5.704 133.3748403860338 0 0 0 0
459 0 1 0 6.417 132.1398881602372 0 0 0 0
460 0 1 0 7.843 132.1398881602372 0 0 0 0
693 0 1 0 8.556 130.9049359344406 0 0 0 0
697 0 1 0 8.556 133.3748403860338 0 0 0 0
221 0 1 0 0 135.84474483762705 0 0 0 0
222 0 1 0 1.426 135.84474483762705 0 0 0 0
223 0 1 0 2.139 134.60979261183044 0 0 0 0
224 0 1 0 3.5649999999999995 134.60979261183044 0 0 0 0
225 0 1 0 0 138.31464928922026 0 0 0 0
226 0 1 0 1.426 138.31464928922026 0 0 0 0
227 0 1 0 2.139 137.07969706342365 0 0 0 0
228 0 1 0 3.5649999999999995 137.07969706342365 0 0 0 0
461 0 1 0 4.278 135.84474483762705 0 0 0 0
465 0 1 0 4.278 138.31464928922026 0 0 0 0
462 0 1 0 5.704 135.84474483762705 0 0 0 0
463 0 1 0 6.417 134.60979261183044 0 0 0 0
464 0 1 0 7.843 134.60979261183044 0 0 0 0
466 0 1 0 5.704 138.31464928922026 0 0 0 0
467 0 1 0 6.417 137.07969706342365 0 0 0 0
468 0 1 0 7.843 137.07969706342365 0 0 0 0
701 0 1 0 8.556 135.84474483762705 0 0 0 0
705 0 1 0 8.556 138.31464928922026 0 0 0 0
229 0 1 0 0 140.78455374081346 0 0 0 0
230 0 1 0 1.426 140.78455374081346 0 0 0 0
231 0 1 0 2.139 139.54960151501686 0 0 0 0
232 0 1 0 3.5649999999999995 139.54960151501686 0 0 0 0
233 0 1 0 0 143.2544581924067 0 0 0 0
234 0 1 0 1.426 143.2544581924067 0 0 0 0
235 0 1 0 2.139 142.0195059666101 0 0 0 0
236 0 1 0 3.5649999999999995 142.0195059666101 0 0 0 0
469 0 1 0 4.278 140.78455374081346 0 0 0 0
473 0 1 0 4.278 143.2544581924067 0 0 0 0
470 0 1 0 5.704 140.78455374081346 0 0 0 0
471 0 1 0 6.417 139.54960151501686 0 0 0 0
472 0 1 0 7.843 139.54960151501686 0 0 0 0
474 0 1 0 5.704 143.2544581924067 0 0 0 0
475 0 1 0 6.417 142.0195059666101 0 0 0 0
476 0 1 0 7.843 142.0195059666101 0 0 0 0
709 0 1 0 8.556 140.78455374081346 0 0 0 0
713 0 1 0 8.556 143.2544581924067 0 0 0 0
3 0 1 0 2.139 146.95931486979654 0 0 -1 0
4 0 1 0 3.5649999999999995 146.95931486979654 0 0 -1 0
237 0 1 0 0 145.7243626439999 0 0 0 0
238 0 1 0 1.426 145.7243626439999 0 0 0 0
239 0 1 0 2.139 144.4894104182033 0 0 0 0
240 0 1 0 3.5649999999999995 144.4894104182033 0 0 0 0
477 0 1 0 4.278 145.7243626439999 0 0 0 0
243 0 1 0 6.417 146.95931486979654 0 0 -1 0
244 0 1 0 7.843 146.95931486979654 0 0 -1 0
478 0 1 0 5.704 145.7243626439999 0 0 0 0
479 0 1 0 6.417 144.4894104182033 0 0 0 0
480 0 1 0 7.843 144.4894104182033 0 0 0 0
717 0 1 0 8.556 145.7243626439999 0 0 0 0
482 0 1 0 9.982 0 0 0 0 0
486 0 1 0 9.982 2.469904451593219 0 0 0 0
487 0 1 0 10.694999999999999 1.2349522257966095 0 0 0 0
488 0 1 0 12.120999999999999 1.2349522257966095 0 0 0 0
491 0 1 0 10.694999999999999 3.704856677389828 0 0 0 0
492 0 1 0 12.120999999999999 3.704856677389828 0 0 0 0
721 0 1 0 12.834 0 0 0 0 0
722 0 1 0 14.26 0 0 0 0 0
725 0 1 0 12.834 2.469904451593219 0 0 0 0
726 0 1 0 14.26 2.469904451593219 0 0 0 0
727 0 1 0 14.972999999999999 1.2349522257966095 0 0 0 0
728 0 1 0 16.398999999999997 1.2349522257966095 0 0 0 0
731 0 1 0 14.972999999999999 3.704856677389828 0 0 0 0
732 0 1 0 16.398999999999997 3.704856677389828 0 0 0 0
961 0 1 0 17.112 0 0 0 0 0
962 0 1 0 18.537999999999997 0 0 0 0 0
965 0 1 0 17.112 2.469904451593219 0 0 0 0
966 0 1 0 18.537999999999997 2.469904451593219 0 0 0 0
490 0 1 0 9.982 4.939808903186438 0 0 0 0
494 0 1 0 9.982 7.409713354779656 0 0 0 0
495 0 1 0 10.694999999999999 6.174761128983047 0 0 0 0
496 0 1 0 12.120999999999999 6.174761128983047 0 0 0 0
499 0 1 0 10.694999999999999 8.644665580576266 0 0 0 0
500 0 1 0 12.120999999999999 8.644665580576266 0 0 0 0
729 0 1 0 12.834 4.939808903186438 0 0 0 0
730 0 1 0 14.26 4.939808903186438 0 0 0 0
733 0 1 0 12.834 7.409713354779656 0 0 0 0
734 0 1 0 14.26 7.409713354779656 0 0 0 0
735 0 1 0 14.972999999999999 6.174761128983047 0 0 0 0
736 0 1 0 16.398999999999997 6.174761128983047 0 0 0 0
739 0 1 0 14.972999999999999 8.644665580576266 0 0 0 0
740 0 1 0 16.398999999999997 8.644665580576266 0 0 0 0
969 0 1 0 17.112 4.939808903186438 0 0 0 0
970 0 1 0 18.537999999999997 4.939808903186438 0 0 0 0
973 0 1 0 17.112 7.409713354779656 0 0 0 0
974 0 1 0 18.537999999999997 7.409713354779656 0 0 0 0
498 0 1 0 9.982 9.879617806372876 0 0 0 0
502 0 1 0 9.982 12.349522257966095 0 0 0 0
503 0 1 0 10.694999999999999 11.114570032169485 0 0 0 0
504 0 1 0 12.120999999999999 11.114570032169485 0 0 0 0
507 0 1 0 10.694999999999999 13.584474483762703 0 0 0 0
508 0 1 0 12.120999999999999 13.584474483762703 0 0 0 0
737 0 1 0 12.834 9.879617806372876 0 0 0 0
738 0 1 0 14.26 9.879617806372876 0 0 0 0
741 0 1 0 12.834 12.349522257966095 0 0 0 0
742 0 1 0 14.26 12.349522257966095 0 0 0 0
743 0 1 0 14.972999999999999 11.114570032169485 0 0 0 0
744 0 1 0 16.398999999999997 11.114570032169485 0 0 0 0
747 0 1 0 14.972999999999999 13.584474483762703 0 0 0 0
748 0 1 0 16.398999999999997 13.584474483762703 0 0 0 0
977 0 1 0 17.112 9.879617806372876 0 0 0 0
978 0 1 0 18.537999999999997 9.879617806372876 0 0 0 0
981 0 1 0 17.112 12.349522257966095 0 0 0 0
982 0 1 0 18.537999999999997 12.349522257966095 0 0 0 0
506 0 1 0 9.982 14.819426709559313 0 0 0 0
510 0 1 0 9.982 17.289331161152532 0 0 0 0
511 0 1 0 10.694999999999999 16.054378935355924 0 0 0 0
512 0 1 0 12.120999999999999 16.054378935355924 0 0 0 0
745 0 1 0 12.834 14.819426709559313 0 0 0 0
746 0 1 0 14.26 14.819426709559313 0 0 0 0
749 0 1 0 12.834 17.289331161152532 0 0 0 0
750 0 1 0 14.26 17.289331161152532 0 0 0 0
751 0 1 0 14.972999999999999 16.054378935355924 0 0 0 0
752 0 1 0 16.398999999999997 16.054378935355924 0 0 0 0
985 0 1 0 17.112 14.819426709559313 0 0 0 0
986 0 1 0 18.537999999999997 14.819426709559313 0 0 0 0
989 0 1 0 17.112 17.289331161152532 0 0 0 0
990 0 1 0 18.537999999999997 17.289331161152532 0 0 0 0
514 0 1 0 9.982 19.75923561274575 0 0 0 0
515 0 1 0 10.694999999999999 18.524283386949143 0 0 0 0
516 0 1 0 12.120999999999999 18.524283386949143 0 0 0 0
518 0 1 0 9.982 22.22914006433897 0 0 0 0
519 0 1 0 10.694999999999999 20.994187838542363 0 0 0 0
520 0 1 0 12.120999999999999 20.994187838542363 0 0 0 0
753 0 1 0 12.834 19.75923561274575 0 0 0 0
754 0 1 0 14.26 19.75923561274575 0 0 0 0
757 0 1 0 12.834 22.22914006433897 0 0 0 0
758 0 1 0 14.26 22.22914006433897 0 0 0 0
755 0 1 0 14.972999999999999 18.524283386949143 0 0 0 0
756 0 1 0 16.398999999999997 18.524283386949143 0 0 0 0
759 0 1 0 14.972999999999999 20.994187838542363 0 0 0 0
760 0 1 0 16.398999999999997 20.994187838542363 0 0 0 0
993 0 1 0 17.112 19.75923561274575 0 0 0 0
994 0 1 0 18.537999999999997 19.75923561274575 0 0 0 0
997 0 1 0 17.112 22.22914006433897 0 0 0 0
998 0 1 0 18.537999999999997 22.22914006433897 0 0 0 0
522 0 1 0 9.982 24.69904451593219 0 0 0 0
523 0 1 0 10.694999999999999 23.464092290135582 0 0 0 0
524 0 1 0 12.120999999999999 23.464092290135582 0 0 0 0
526 0 1 0 9.982 27.16894896752541 0 0 0 0
527 0 1 0 10.694999999999999 25.9339967417288 0 0 0 0
528 0 1 0 12.120999999999999 25.9339967417288 0 0 0 0
761 0 1 0 12.834 24.69904451593219 0 0 0 0
762 0 1 0 14.26 24.69904451593219 0 0 0 0
765 0 1 0 12.834 27.16894896752541 0 0 0 0
766 0 1 0 14.26 27.16894896752541 0 0 0 0
763 0 1 0 14.972999999999999 23.464092290135582 0 0 0 0
764 0 1 0 16.398999999999997 23.464092290135582 0 0 0 0
767 0 1 0 14.972999999999999 25.9339967417288 0 0 0 0
768 0 1 0 16.398999999999997 25.9339967417288 0 0 0 0
1001 0 1 0 17.112 24.69904451593219 0 0 0 0
1002 0 1 0 18.537999999999997 24.69904451593219 0 0 0 0
1005 0 1 0 17.112 27.16894896752541 0 0 0 0
1006 0 1 0 18.537999999999997 27.16894896752541 0 0 0 0
530 0 1 0 9.982 29.638853419118625 0 0 0 0
531 0 1 0 10.694999999999999 28.403901193322017 0 0 0 0
532 0 1 0 12.120999999999999 28.403901193322017 0 0 0 0
534 0 1 0 9.982 32.10875787071185 0 0 0 0
535 0 1 0 10.694999999999999 30.87380564491524 0 0 0 0
536 0 1 0 12.120999999999999 30.87380564491524 0 0 0 0
769 0 1 0 12.834 29.638853419118625 0 0 0 0
770 0 1 0 14.26 29.638853419118625 0 0 0 0
773 0 1 0 12.834 32.10875787071185 0 0 0 0
774 0 1 0 14.26 32.10875787071185 0 0 0 0
771 0 1 0 14.972999999999999 28.403901193322017 0 0 0 0
772 0 1 0 16.398999999999997 28.403901193322017 0 0 0 0
775 0 1 0 14.972999999999999 30.87380564491524 0 0 0 0
776 0 1 0 16.398999999999997 30.87380564491524 0 0 0 0
1009 0 1 0 17.112 29.638853419118625 0 0 0 0
1010 0 1 0 18.537999999999997 29.638853419118625 0 0 0 0
1013 0 1 0 17.112 32.10875787071185 0 0 0 0
1014 0 1 0 18.537999999999997 32.10875787071185 0 0 0 0
538 0 1 0 9.982 34.578662322305064 0 0 0 0
539 0 1 0 10.694999999999999 33.34371009650845 0 0 0 0
540 0 1 0 12.120999999999999 33.34371009650845 0 0 0 0
543 0 1 0 10.694999999999999 35.813614548101675 0 0 0 0
544 0 1 0 12.120999999999999 35.813614548101675 0 0 0 0
777 0 1 0 12.834 34.578662322305064 0 0 0 0
778 0 1 0 14.26 34.578662322305064 0 0 0 0
779 0 1 0 14.972999999999999 33.34371009650845 0 0 0 0
780 0 1 0 16.398999999999997 33.34371009650845 0 0 0 0
783 0 1 0 14.972999999999999 35.813614548101675 0 0 0 0