LAMMPS (4 Feb 2025)
OMP_NUM_THREADS environment is not set. Defaulting to 1 thread. (src/comm.cpp:99)
  using 1 OpenMP thread(s) per MPI task
# LAMMPS script for running NVT simulation

units       metal                   # Energies in eV, distances in A
dimension   3
boundary    p p p
atom_style  full

read_data   ../start.lammps-data
Reading data file ...
  orthogonal box = (0 0 0) to (154.008 148.19427 151.07317)
  10 by 8 by 8 MPI processor grid
  reading atoms ...
  18999 atoms
  scanning bonds ...
  2 = max bonds/atom
  reading velocities ...
  18999 velocities
  scanning angles ...
  1 = max angles/atom
  orthogonal box = (0 0 0) to (154.008 148.19427 151.07317)
  10 by 8 by 8 MPI processor grid
  reading bonds ...
  6906 bonds
  reading angles ...
  3453 angles
Finding 1-2 1-3 1-4 neighbors ...
  special bond factors lj:    0        0        0       
  special bond factors coul:  0        0        0       
     2 = max # of 1-2 neighbors
     1 = max # of 1-3 neighbors
     1 = max # of 1-4 neighbors
     2 = max # of special neighbors
  special bonds CPU = 6.112 seconds
  read_data CPU = 6.394 seconds

bond_style   zero                    # SPC/E rigid model
bond_coeff   1 1.0                   # SPC/E rigid model
angle_style  zero                    # SPC/E rigid model
angle_coeff  1 109.47                # SPC/E rigid model
pair_style   lj/cut/coul/long 9.0    # Cutoff radius of 0.9 nm = 9 A
kspace_style pppm 1.0e-5             # Particle-particle particle-mesh Ewald summation
pair_coeff   1 1 0.0      1.0        # Ignore C-C
pair_coeff   1 2 0.0      1.0        # Ignore C-H
pair_coeff   1 3 0.004551 3.367      # LJ for C-O (0.4391 kJ/mol = 0.004551 eV)
pair_coeff   2 2 0.0      1.0        # SPC/E H-H
pair_coeff   2 3 0.0      1.0        # SPC/E H-O
pair_coeff   3 3 0.006735 3.166      # SPC/E O-O (0.1553 kcal/mol = 0.006735 eV)

set type 2 charge 0.4238            # SPC/E H
Setting atom values ...
  6906 settings made for charge
set type 3 charge -0.8476           # SPC/E O
Setting atom values ...
  3453 settings made for charge

variable t equal step

group graphene type 1
8640 atoms in group graphene
group H2O type 2 3
10359 atoms in group H2O

######### Energy minimization #########

thermo 10
fix graphene_fix graphene setforce 0.0 0.0 0.0
fix rigid_bonds H2O shake 0.0001 10 10000 b 1 a 1
Finding SHAKE clusters ...
       0 = # of size 2 clusters
       0 = # of size 3 clusters
       0 = # of size 4 clusters
    3453 = # of frozen angles
  find clusters CPU = 0.175 seconds
minimize 0.0 0.0 1000 1000000
PPPM initialization ...
  using 12-bit tables for long-range coulomb (src/kspace.cpp:342)
  G vector (1/distance) = 0.29613742
  grid = 90 90 90
  stencil order = 5
  estimated absolute RMS force accuracy = 0.00016052161
  estimated relative force accuracy = 1.1147609e-05
  using double precision KISS FFT
  3d grid and FFT values/proc = 5184 1350
Generated 0 of 3 mixed pair_coeff terms from geometric mixing rule
WARNING: Using fix shake with minimization.
  Substituting constraints with harmonic restraint forces using kbond=86.17 (src/RIGID/fix_shake.cpp:386)
Neighbor list info ...
  update: every = 1 steps, delay = 0 steps, check = yes
  max neighbors/atom: 2000, page size: 100000
  master list distance cutoff = 11
  ghost atom cutoff = 11
  binsize = 5.5, bins = 29 27 28
  1 neighbor lists, perpetual/occasional/extra = 1 0 0
  (1) pair lj/cut/coul/long, perpetual
      attributes: half, newton on
      pair build: half/bin/newton
      stencil: half/bin/3d
      bin: standard
Per MPI rank memory allocation (min/avg/max) = 9.175 | 9.26 | 10.06 Mbytes
   Step          Temp          E_pair         E_mol          TotEng         Press     
         0   198.79473      1.2357444e+12  0              1.2357444e+12  2.2968732e+12
        10   198.79473      1294089.4      0              1294508.9      2408981.7    
        20   198.79473     -1033.1435      0             -400.90025      1480.8101    
        30   198.79473     -1333.655       0              889972.66     -162435.68    
SHAKE stats (type/ave/delta/count) on step 30
Bond:   1   1.16668   22.4164         6904
Angle:  1   107.486   167.383         3451
Loop time of 0.585331 on 640 procs for 30 steps with 18999 atoms

98.5% CPU use with 640 MPI tasks x 1 OpenMP threads

Minimization stats:
  Stopping criterion = linesearch alpha is zero
  Energy initial, next-to-last, final = 
      1235744447602.89  -1262.88365503255   889573.213102304
  Force two-norm initial, final = 6.2591253e+13 27954.472
  Force max component initial, final = 5.8356526e+13 5001.512
  Final line search alpha, max atom move = 3.2237189e-13 1.6123469e-09
  Iterations, force evaluations = 30 74

MPI task timing breakdown:
Section |  min time  |  avg time  |  max time  |%varavg| %total
---------------------------------------------------------------
Pair    | 1.1998e-05 | 0.0087254  | 0.30191    |  40.3 |  1.49
Bond    | 1.0426e-05 | 2.1762e-05 | 4.3053e-05 |   0.0 |  0.00
Kspace  | 0.24329    | 0.54583    | 0.55662    |   5.3 | 93.25
Neigh   | 0.0085442  | 0.0091183  | 0.009297   |   0.2 |  1.56
Comm    | 0.00019757 | 0.002985   | 0.016801   |   7.5 |  0.51
Output  | 0.00034116 | 0.00034822 | 0.00037513 |   0.0 |  0.06
Modify  | 0.00014967 | 0.0013207  | 0.0033659  |   1.4 |  0.23
Other   |            | 0.01698    |            |       |  2.90

Nlocal:        29.6859 ave         616 max           0 min
Histogram: 550 53 9 5 3 4 2 2 4 8
Nghost:        298.184 ave        3957 max           0 min
Histogram: 456 105 25 17 18 7 5 3 3 1
Neighs:        4813.25 ave      171054 max           0 min
Histogram: 607 10 4 3 2 3 3 0 4 4

Total # of neighbors = 3080482
Ave neighs/atom = 162.13917
Ave special neighs/atom = 1.0904784
Neighbor list builds = 2
Dangerous builds = 0
unfix graphene_fix
reset_timestep 0

######### Soft run to prevent explosion #########

thermo 150
timestep 0.00001
fix NVT1 H2O nvt temp 300 300 $(20.0*dt)
fix NVT1 H2O nvt temp 300 300 0.00020000000000000000958
run 1500
PPPM initialization ...
  using 12-bit tables for long-range coulomb (src/kspace.cpp:342)
  G vector (1/distance) = 0.29613742
  grid = 90 90 90
  stencil order = 5
  estimated absolute RMS force accuracy = 0.00016052161
  estimated relative force accuracy = 1.1147609e-05
  using double precision KISS FFT
  3d grid and FFT values/proc = 5184 1350
Generated 0 of 3 mixed pair_coeff terms from geometric mixing rule
SHAKE stats (type/ave/delta/count) on step 0
Bond:   1   1.00426   0.596168        6906
Angle:  1   108.776   70.9113         3453
Per MPI rank memory allocation (min/avg/max) = 8.05 | 8.135 | 8.937 Mbytes
   Step          Temp          E_pair         E_mol          TotEng         Press     
         0   198.79473     -1333.655       0             -934.20702      1465.325     
       150   134.74864     -1311.2497      0             -1040.4927      282.03767    
       300   134.39799     -1351.1621      0             -1081.1096      214.69693    
       450   134.30027     -1385.3458      0             -1115.4897      158.40707    
       600   134.189       -1416.3122      0             -1146.6797      109.67391    
       750   134.06799     -1443.543       0             -1174.1536      69.424781    
       900   133.95159     -1466.9264      0             -1197.7709      37.411444    
      1050   133.84755     -1486.7418      0             -1217.7953      12.493617    
      1200   133.76477     -1503.5804      0             -1234.8003     -7.1362424    
      1350   133.70782     -1518.1923      0             -1249.5267     -23.50338     
      1500   133.66466     -1531.2277      0             -1262.6487     -38.298304    
Loop time of 9.63294 on 640 procs for 1500 steps with 18999 atoms

Performance: 0.135 ns/day, 178.388 hours/ns, 155.716 timesteps/s, 2.958 Matom-step/s
99.9% CPU use with 640 MPI tasks x 1 OpenMP threads

MPI task timing breakdown:
Section |  min time  |  avg time  |  max time  |%varavg| %total
---------------------------------------------------------------
Pair    | 0.00013145 | 0.11793    | 4.2412     | 152.7 |  1.22
Bond    | 0.00011645 | 0.00026603 | 0.00061078 |   0.0 |  0.00
Kspace  | 4.774      | 8.8916     | 9.0998     |  17.8 | 92.30
Neigh   | 0.013168   | 0.014003   | 0.014232   |   0.2 |  0.15
Comm    | 0.00071446 | 0.074048   | 0.52877    |  44.7 |  0.77
Output  | 0.0020697  | 0.0021168  | 0.002254   |   0.1 |  0.02
Modify  | 0.22482    | 0.49542    | 0.68934    |  14.3 |  5.14
Other   |            | 0.03752    |            |       |  0.39

Nlocal:        29.6859 ave         611 max           0 min
Histogram: 550 53 9 5 3 4 2 3 2 9
Nghost:        298.075 ave        3959 max           0 min
Histogram: 456 105 25 17 18 7 5 3 3 1
Neighs:        4815.96 ave      170166 max           0 min
Histogram: 607 10 4 3 2 3 3 0 4 4

Total # of neighbors = 3082216
Ave neighs/atom = 162.23043
Ave special neighs/atom = 1.0904784
Neighbor list builds = 3
Dangerous builds = 0
unfix NVT1
reset_timestep 0

######### A little bit faster #########

thermo 150
timestep 0.00002
fix NVT1 H2O nvt temp 300 300 $(25.0*dt)
fix NVT1 H2O nvt temp 300 300 0.00050000000000000001041
run 1500
PPPM initialization ...
  using 12-bit tables for long-range coulomb (src/kspace.cpp:342)
  G vector (1/distance) = 0.29613742
  grid = 90 90 90
  stencil order = 5
  estimated absolute RMS force accuracy = 0.00016052161
  estimated relative force accuracy = 1.1147609e-05
  using double precision KISS FFT
  3d grid and FFT values/proc = 5184 1350
Generated 0 of 3 mixed pair_coeff terms from geometric mixing rule
SHAKE stats (type/ave/delta/count) on step 0
Bond:   1   1         7.37173e-11     6906
Angle:  1   109.47    1.14473e-08     3453
Per MPI rank memory allocation (min/avg/max) = 8.05 | 8.135 | 8.937 Mbytes
   Step          Temp          E_pair         E_mol          TotEng         Press     
         0   133.66466     -1531.2277      0             -1262.6487     -38.309962    
       150   133.76913     -1552.8756      0             -1284.0868     -64.532139    
       300   133.29678     -1567.9332      0             -1300.0935     -84.600398    
       450   132.08876     -1577.5766      0             -1312.1642     -98.546086    
       600   133.34799     -1583.6447      0             -1315.7021     -106.56008    
       750   133.63584     -1587.483       0             -1318.962      -111.00673    
       900   132.51463     -1589.8381      0             -1323.57       -112.72904    
      1050   134.59591     -1591.3599      0             -1320.9098     -110.78163    
      1200   133.38533     -1592.8201      0             -1324.8024     -108.70579    
      1350   131.90665     -1594.9909      0             -1329.9445     -106.0974     
      1500   133.51143     -1598.4497      0             -1330.1786     -102.36764    
Loop time of 9.60087 on 640 procs for 1500 steps with 18999 atoms

Performance: 0.270 ns/day, 88.897 hours/ns, 156.236 timesteps/s, 2.968 Matom-step/s
100.0% CPU use with 640 MPI tasks x 1 OpenMP threads

MPI task timing breakdown:
Section |  min time  |  avg time  |  max time  |%varavg| %total
---------------------------------------------------------------
Pair    | 0.00012936 | 0.11813    | 4.2363     | 152.8 |  1.23
Bond    | 0.00011808 | 0.00026872 | 0.00058988 |   0.0 |  0.00
Kspace  | 4.7477     | 8.8639     | 9.0726     |  17.9 | 92.32
Neigh   | 0.017713   | 0.01878    | 0.019289   |   0.3 |  0.20
Comm    | 0.00084704 | 0.074282   | 0.53091    |  44.7 |  0.77
Output  | 0.0020284  | 0.002074   | 0.0022368  |   0.1 |  0.02
Modify  | 0.21915    | 0.49151    | 0.68678    |  14.4 |  5.12
Other   |            | 0.0319     |            |       |  0.33

Nlocal:        29.6859 ave         609 max           0 min
Histogram: 550 53 9 4 4 4 2 2 3 9
Nghost:        297.923 ave        3960 max           0 min
Histogram: 456 105 25 17 18 8 4 3 3 1
Neighs:        4830.96 ave      170708 max           0 min
Histogram: 608 9 4 3 2 3 3 0 4 4

Total # of neighbors = 3091815
Ave neighs/atom = 162.73567
Ave special neighs/atom = 1.0904784
Neighbor list builds = 4
Dangerous builds = 0
unfix NVT1
reset_timestep 0

######### And faster still #########

thermo 150
timestep 0.00005
fix NVT1 H2O nvt temp 300 300 $(30.0*dt)
fix NVT1 H2O nvt temp 300 300 0.0015000000000000000312
run 1500
PPPM initialization ...
  using 12-bit tables for long-range coulomb (src/kspace.cpp:342)
  G vector (1/distance) = 0.29613742
  grid = 90 90 90
  stencil order = 5
  estimated absolute RMS force accuracy = 0.00016052161
  estimated relative force accuracy = 1.1147609e-05
  using double precision KISS FFT
  3d grid and FFT values/proc = 5184 1350
Generated 0 of 3 mixed pair_coeff terms from geometric mixing rule
SHAKE stats (type/ave/delta/count) on step 0
Bond:   1   1         2.4192e-10      6906
Angle:  1   109.47    3.28338e-08     3453
Per MPI rank memory allocation (min/avg/max) = 8.05 | 8.135 | 8.937 Mbytes
   Step          Temp          E_pair         E_mol          TotEng         Press     
         0   133.51143     -1598.4497      0             -1330.1786     -102.36734    
       150   134.26265     -1608.4141      0             -1338.6336     -92.430549    
       300   133.4878      -1614.4181      0             -1346.1945     -76.260993    
       450   131.62855     -1620.6114      0             -1356.1237     -60.411413    
       600   133.2084      -1626.6342      0             -1358.972      -43.61042     
       750   134.99958     -1630.2839      0             -1359.0227     -25.042742    
       900   133.97295     -1632.7655      0             -1363.5671     -8.8975954    
      1050   136.15807     -1636.86        0             -1363.2709      3.8885738    
      1200   131.70522     -1643.3121      0             -1378.6703      9.0217407    
      1350   132.76417     -1646.0858      0             -1379.3163      15.422413    
      1500   131.75028     -1647.4414      0             -1382.7091      21.001842    
Loop time of 9.64228 on 640 procs for 1500 steps with 18999 atoms

Performance: 0.672 ns/day, 35.712 hours/ns, 155.565 timesteps/s, 2.956 Matom-step/s
100.0% CPU use with 640 MPI tasks x 1 OpenMP threads

MPI task timing breakdown:
Section |  min time  |  avg time  |  max time  |%varavg| %total
---------------------------------------------------------------
Pair    | 0.00013433 | 0.11889    | 4.24       | 153.7 |  1.23
Bond    | 0.00011811 | 0.00027036 | 0.00059226 |   0.0 |  0.00
Kspace  | 4.7579     | 8.8795     | 9.0898     |  18.0 | 92.09
Neigh   | 0.040418   | 0.042698   | 0.043428   |   0.4 |  0.44
Comm    | 0.0012725  | 0.07474    | 0.53085    |  44.6 |  0.78
Output  | 0.0020266  | 0.0020691  | 0.0022133  |   0.1 |  0.02
Modify  | 0.22144    | 0.49188    | 0.68824    |  14.4 |  5.10
Other   |            | 0.03219    |            |       |  0.33

Nlocal:        29.6859 ave         608 max           0 min
Histogram: 550 53 8 5 4 4 2 2 4 8
Nghost:        298.489 ave        3960 max           0 min
Histogram: 456 105 25 17 17 7 5 4 3 1
Neighs:        4868.27 ave      172310 max           0 min
Histogram: 607 10 4 3 2 3 3 0 2 6

Total # of neighbors = 3115691
Ave neighs/atom = 163.99237
Ave special neighs/atom = 1.0904784
Neighbor list builds = 9
Dangerous builds = 0
unfix NVT1
reset_timestep 0

######### NVT equilibration for 10 ns #############

thermo 10000
#dump DUMP1 all atom 100 nvt_equi.lammpstrj
timestep 0.001
fix NVT1 H2O nvt temp 300 300 $(100.0*dt)
fix NVT1 H2O nvt temp 300 300 0.10000000000000000555
run 10000000
PPPM initialization ...
  using 12-bit tables for long-range coulomb (src/kspace.cpp:342)
  G vector (1/distance) = 0.29613742
  grid = 90 90 90
  stencil order = 5
  estimated absolute RMS force accuracy = 0.00016052161
  estimated relative force accuracy = 1.1147609e-05
  using double precision KISS FFT
  3d grid and FFT values/proc = 5184 1350
Generated 0 of 3 mixed pair_coeff terms from geometric mixing rule
SHAKE stats (type/ave/delta/count) on step 0
Bond:   1   1         2.09244e-09     6906
Angle:  1   109.47    1.88589e-07     3453
Per MPI rank memory allocation (min/avg/max) = 8.05 | 8.135 | 8.937 Mbytes
   Step          Temp          E_pair         E_mol          TotEng         Press     
         0   131.75028     -1647.4414      0             -1382.7091      20.918084    
SHAKE stats (type/ave/delta/count) on step 10000
Bond:   1   1         1.41899e-06     6906
Angle:  1   109.47    9.62554e-05     3453
     10000   133.60731     -1623.2024      0             -1354.7387     -0.04252974   
SHAKE stats (type/ave/delta/count) on step 20000
Bond:   1   1         1.39905e-06     6906
Angle:  1   109.47    0.000100955     3453
     20000   134.27039     -1622.3828      0             -1352.5867     -6.0473334    
SHAKE stats (type/ave/delta/count) on step 30000
Bond:   1   1         1.14762e-06     6906
Angle:  1   109.47    0.000104525     3453
     30000   135.25944     -1615.4591      0             -1343.6757     -13.6319      
SHAKE stats (type/ave/delta/count) on step 40000
Bond:   1   1         1.28866e-06     6906
Angle:  1   109.47    0.000106726     3453
     40000   132.09528     -1617.2428      0             -1351.8173     -0.23290042   
SHAKE stats (type/ave/delta/count) on step 50000
Bond:   1   1         1.73716e-06     6906
Angle:  1   109.47    0.000112142     3453
     50000   131.73988     -1618.3822      0             -1353.6708     -4.6630676    
SHAKE stats (type/ave/delta/count) on step 60000
Bond:   1   1         1.65893e-06     6906
Angle:  1   109.47    0.000105758     3453
     60000   134.39849     -1614.0447      0             -1343.9912      5.2795481    
SHAKE stats (type/ave/delta/count) on step 70000
Bond:   1   1         1.21777e-06     6906
Angle:  1   109.47    9.71327e-05     3453
     70000   132.35974     -1614.1557      0             -1348.1988     -11.335051    
SHAKE stats (type/ave/delta/count) on step 80000
Bond:   1   1         1.17507e-06     6906
Angle:  1   109.47    9.04836e-05     3453
     80000   134.13353     -1608.764       0             -1339.2429     -6.4471689    
SHAKE stats (type/ave/delta/count) on step 90000
Bond:   1   1         1.13082e-06     6906
Angle:  1   109.47    8.91238e-05     3453
     90000   135.19798     -1610.2491      0             -1338.5891     -9.0423321    
SHAKE stats (type/ave/delta/count) on step 100000
Bond:   1   1         1.28336e-06     6906
Angle:  1   109.47    0.000106229     3453
    100000   132.32372     -1610.4608      0             -1344.5762     -9.9842769    
SHAKE stats (type/ave/delta/count) on step 110000
Bond:   1   1         1.60735e-06     6906
Angle:  1   109.47    0.00011078      3453
    110000   135.69547     -1613.3174      0             -1340.6579     -9.1757017    
SHAKE stats (type/ave/delta/count) on step 120000
Bond:   1   1         1.38336e-06     6906
Angle:  1   109.47    9.81778e-05     3453
    120000   132.11289     -1619.2644      0             -1353.8035     -5.0362991    
SHAKE stats (type/ave/delta/count) on step 130000
Bond:   1   1         1.63019e-06     6906
Angle:  1   109.47    0.000114663     3453
    130000   132.14367     -1610.9709      0             -1345.4482     -3.6285696    
SHAKE stats (type/ave/delta/count) on step 140000
Bond:   1   1         1.46861e-06     6906
Angle:  1   109.47    0.000103934     3453
    140000   133.48158     -1612.2706      0             -1344.0595     -0.15661264   
SHAKE stats (type/ave/delta/count) on step 150000
Bond:   1   1         1.441e-06       6906
Angle:  1   109.47    0.000104948     3453
    150000   132.61926     -1611.1019      0             -1344.6236     -14.741989    
SHAKE stats (type/ave/delta/count) on step 160000
Bond:   1   1         1.1851e-06      6906
Angle:  1   109.47    9.98785e-05     3453
    160000   132.67005     -1610.143       0             -1343.5625      4.6836861    
SHAKE stats (type/ave/delta/count) on step 170000
Bond:   1   1         1.21046e-06     6906
Angle:  1   109.47    9.8117e-05      3453
    170000   133.54003     -1613.6903      0             -1345.3618     -11.423537    
SHAKE stats (type/ave/delta/count) on step 180000
Bond:   1   1         1.10679e-06     6906
Angle:  1   109.47    0.000108884     3453
    180000   132.22645     -1611.3283      0             -1345.6393     -9.3131667    
SHAKE stats (type/ave/delta/count) on step 190000
Bond:   1   1         1.02007e-06     6906
Angle:  1   109.47    9.47531e-05     3453
    190000   132.04097     -1609.7185      0             -1344.4021     -20.540619    
SHAKE stats (type/ave/delta/count) on step 200000
Bond:   1   1         1.20172e-06     6906
Angle:  1   109.47    9.0783e-05      3453
    200000   133.57176     -1607.6394      0             -1339.2471     -6.5195135    
SHAKE stats (type/ave/delta/count) on step 210000
Bond:   1   1         1.55171e-06     6906
Angle:  1   109.47    0.00010158      3453
    210000   132.93294     -1610.6785      0             -1343.5698     -0.022306564  
SHAKE stats (type/ave/delta/count) on step 220000
Bond:   1   1         1.12034e-06     6906
Angle:  1   109.47    9.76401e-05     3453
    220000   135.90153     -1612.0409      0             -1338.9673     -7.3973478    
SHAKE stats (type/ave/delta/count) on step 230000
Bond:   1   1         1.32358e-06     6906
Angle:  1   109.47    0.000102552     3453
    230000   133.76258     -1612.7055      0             -1343.9298     -6.4305859    
SHAKE stats (type/ave/delta/count) on step 240000
Bond:   1   1         1.30369e-06     6906
Angle:  1   109.47    9.65182e-05     3453
    240000   134.18441     -1609.6991      0             -1340.0758     -4.8809658    
SHAKE stats (type/ave/delta/count) on step 250000
Bond:   1   1         1.0921e-06      6906
Angle:  1   109.47    0.00011055      3453
    250000   136.04716     -1616.0399      0             -1342.6737     -17.741966    
SHAKE stats (type/ave/delta/count) on step 260000
Bond:   1   1         1.28013e-06     6906
Angle:  1   109.47    9.20049e-05     3453
    260000   133.12455     -1606.8586      0             -1339.3649      0.62134146   
SHAKE stats (type/ave/delta/count) on step 270000
Bond:   1   1         1.31788e-06     6906
Angle:  1   109.47    9.77565e-05     3453
    270000   132.82025     -1603.9314      0             -1337.0492     -13.455685    
SHAKE stats (type/ave/delta/count) on step 280000
Bond:   1   1         1.32273e-06     6906
Angle:  1   109.47    0.00010465      3453
    280000   131.98915     -1610.9131      0             -1345.7008     -1.9102862    
SHAKE stats (type/ave/delta/count) on step 290000
Bond:   1   1         1.16618e-06     6906
Angle:  1   109.47    0.000115274     3453
    290000   132.48217     -1612.5837      0             -1346.3808     -12.434955    
SHAKE stats (type/ave/delta/count) on step 300000
Bond:   1   1         1.33635e-06     6906
Angle:  1   109.47    0.00010065      3453
    300000   134.09283     -1608.6751      0             -1339.2358     -0.78055593   
SHAKE stats (type/ave/delta/count) on step 310000
Bond:   1   1         1.36232e-06     6906
Angle:  1   109.47    9.84189e-05     3453
    310000   133.84805     -1603.4785      0             -1334.531      -16.775144    
SHAKE stats (type/ave/delta/count) on step 320000
Bond:   1   1         1.61757e-06     6906
Angle:  1   109.47    8.98727e-05     3453
    320000   135.64711     -1604.508       0             -1331.9456     -24.410247    
SHAKE stats (type/ave/delta/count) on step 330000
Bond:   1   1         1.18693e-06     6906
Angle:  1   109.47    9.84434e-05     3453
    330000   134.1496      -1615.1892      0             -1345.6358      0.23489507   
SHAKE stats (type/ave/delta/count) on step 340000
Bond:   1   1         1.27465e-06     6906
Angle:  1   109.47    0.000114639     3453
    340000   132.75106     -1612.5337      0             -1345.7905     -13.086879    
SHAKE stats (type/ave/delta/count) on step 350000
Bond:   1   1         1.24862e-06     6906
Angle:  1   109.47    8.60338e-05     3453
    350000   133.83121     -1616.1204      0             -1347.2068     -14.462689    
SHAKE stats (type/ave/delta/count) on step 360000
Bond:   1   1         1.28342e-06     6906
Angle:  1   109.47    0.00013835      3453
    360000   130.24684     -1612.4271      0             -1350.7157     -8.1196316    
SHAKE stats (type/ave/delta/count) on step 370000
Bond:   1   1         1.42878e-06     6906
Angle:  1   109.47    9.82123e-05     3453
    370000   133.30896     -1610.2742      0             -1342.41       -14.892639    
SHAKE stats (type/ave/delta/count) on step 380000
Bond:   1   1         2.13038e-06     6906
Angle:  1   109.47    0.000156616     3453
    380000   135.49366     -1608.4487      0             -1336.1946     -19.840764    
SHAKE stats (type/ave/delta/count) on step 390000
Bond:   1   1         1.30412e-06     6906
Angle:  1   109.47    9.80206e-05     3453
    390000   134.29598     -1606.9258      0             -1337.0784     -3.797554     
SHAKE stats (type/ave/delta/count) on step 400000
Bond:   1   1         1.29162e-06     6906
Angle:  1   109.47    0.000100183     3453
    400000   132.30069     -1616.9382      0             -1351.0999     -6.8774531    
SHAKE stats (type/ave/delta/count) on step 410000
Bond:   1   1         1.41916e-06     6906
Angle:  1   109.47    9.57893e-05     3453
    410000   134.88659     -1611.9709      0             -1340.9367     -4.7089465    
SHAKE stats (type/ave/delta/count) on step 420000
Bond:   1   1         1.49618e-06     6906
Angle:  1   109.47    0.000108314     3453
    420000   133.48672     -1615.9312      0             -1347.7098     -2.3768162    
SHAKE stats (type/ave/delta/count) on step 430000
Bond:   1   1         1.30948e-06     6906
Angle:  1   109.47    0.000104102     3453
    430000   133.3038      -1614.8508      0             -1346.997      -2.0203767    
SHAKE stats (type/ave/delta/count) on step 440000
Bond:   1   1         1.43717e-06     6906
Angle:  1   109.47    0.000114946     3453
    440000   133.78038     -1607.6021      0             -1338.7907     -9.4755729    
SHAKE stats (type/ave/delta/count) on step 450000
Bond:   1   1         1.29356e-06     6906
Angle:  1   109.47    9.31695e-05     3453
    450000   133.61189     -1611.5748      0             -1343.1019      2.5249222    
SHAKE stats (type/ave/delta/count) on step 460000
Bond:   1   1         1.27253e-06     6906
Angle:  1   109.47    8.91892e-05     3453
    460000   132.97041     -1614.2919      0             -1347.1079     -4.7730855    
SHAKE stats (type/ave/delta/count) on step 470000
Bond:   1   1         1.36397e-06     6906
Angle:  1   109.47    0.000103082     3453
    470000   132.82        -1609.4765      0             -1342.5948     -0.98157404   
SHAKE stats (type/ave/delta/count) on step 480000
Bond:   1   1         1.19586e-06     6906
Angle:  1   109.47    9.15537e-05     3453
    480000   133.98735     -1611.1043      0             -1341.8769     -6.9485791    
SHAKE stats (type/ave/delta/count) on step 490000
Bond:   1   1         1.27673e-06     6906
Angle:  1   109.47    9.16509e-05     3453
    490000   134.09801     -1619.4313      0             -1349.9816      8.6089272    
SHAKE stats (type/ave/delta/count) on step 500000
Bond:   1   1         1.34014e-06     6906
Angle:  1   109.47    0.000138461     3453
    500000   132.45451     -1611.7957      0             -1345.6484     -5.9613209    
SHAKE stats (type/ave/delta/count) on step 510000
Bond:   1   1         1.10988e-06     6906
Angle:  1   109.47    9.99609e-05     3453
    510000   133.70429     -1609.32        0             -1340.6614     -9.2923018    
SHAKE stats (type/ave/delta/count) on step 520000
Bond:   1   1         1.17416e-06     6906
Angle:  1   109.47    9.3256e-05      3453
    520000   133.24059     -1616.0091      0             -1348.2823     -10.603667    
SHAKE stats (type/ave/delta/count) on step 530000
Bond:   1   1         1.31382e-06     6906
Angle:  1   109.47    9.72911e-05     3453
    530000   132.69951     -1605.338       0             -1338.6983     -6.1402644    
SHAKE stats (type/ave/delta/count) on step 540000
Bond:   1   1         1.78578e-06     6906
Angle:  1   109.47    0.000127408     3453
    540000   132.01997     -1610.1924      0             -1344.9182     -12.693394    
SHAKE stats (type/ave/delta/count) on step 550000
Bond:   1   1         1.09348e-06     6906
Angle:  1   109.47    9.01392e-05     3453
    550000   134.66539     -1605.9887      0             -1335.3989     -16.997133    
SHAKE stats (type/ave/delta/count) on step 560000
Bond:   1   1         1.46794e-06     6906
Angle:  1   109.47    0.000100581     3453
    560000   132.88155     -1611.7778      0             -1344.7724     -16.477048    
SHAKE stats (type/ave/delta/count) on step 570000
Bond:   1   1         1.22577e-06     6906
Angle:  1   109.47    9.38742e-05     3453
    570000   135.84188     -1616.1901      0             -1343.2363     -26.417406    
SHAKE stats (type/ave/delta/count) on step 580000
Bond:   1   1         1.34055e-06     6906
Angle:  1   109.47    0.000104573     3453
    580000   132.74404     -1617.5495      0             -1350.8204     -5.6390174    
SHAKE stats (type/ave/delta/count) on step 590000
Bond:   1   1         1.19714e-06     6906
Angle:  1   109.47    0.000101523     3453
    590000   133.36283     -1618.9283      0             -1350.9558     -6.7318163    
SHAKE stats (type/ave/delta/count) on step 600000
Bond:   1   1         1.24843e-06     6906
Angle:  1   109.47    0.000103156     3453
    600000   134.72859     -1615.4622      0             -1344.7454     -10.159721    
SHAKE stats (type/ave/delta/count) on step 610000
Bond:   1   1         1.16025e-06     6906
Angle:  1   109.47    0.00010164      3453
    610000   135.18676     -1610.9459      0             -1339.3085     -9.1238997    
SHAKE stats (type/ave/delta/count) on step 620000
Bond:   1   1         1.29594e-06     6906
Angle:  1   109.47    9.26172e-05     3453
    620000   133.06226     -1614.022       0             -1346.6535     -9.7631991    
SHAKE stats (type/ave/delta/count) on step 630000
Bond:   1   1         1.32026e-06     6906
Angle:  1   109.47    0.00010187      3453
    630000   135.81023     -1606.3325      0             -1333.4423     -5.3237927    
SHAKE stats (type/ave/delta/count) on step 640000
Bond:   1   1         1.41932e-06     6906
Angle:  1   109.47    9.92352e-05     3453
    640000   131.62067     -1609.3035      0             -1344.8316     -6.5840818    
SHAKE stats (type/ave/delta/count) on step 650000
Bond:   1   1         1.16032e-06     6906
Angle:  1   109.47    9.98188e-05     3453
    650000   132.45266     -1617.3417      0             -1351.1981     -5.1951235    
SHAKE stats (type/ave/delta/count) on step 660000
Bond:   1   1         1.72726e-06     6906
Angle:  1   109.47    0.0001168       3453
    660000   133.41447     -1605.7659      0             -1337.6897     -17.843328    
SHAKE stats (type/ave/delta/count) on step 670000
Bond:   1   1         1.91006e-06     6906
Angle:  1   109.47    0.000132775     3453
    670000   131.1849      -1608.595       0             -1344.9987     -8.9229428    
SHAKE stats (type/ave/delta/count) on step 680000
Bond:   1   1         1.26916e-06     6906
Angle:  1   109.47    9.3574e-05      3453
    680000   133.05437     -1610.8152      0             -1343.4625     -0.32546      
SHAKE stats (type/ave/delta/count) on step 690000
Bond:   1   1         1.23214e-06     6906
Angle:  1   109.47    9.80136e-05     3453
    690000   131.62158     -1614.1599      0             -1349.6862     -10.795794    
SHAKE stats (type/ave/delta/count) on step 700000
Bond:   1   1         1.28556e-06     6906
Angle:  1   109.47    9.10023e-05     3453
    700000   131.65611     -1618.7293      0             -1354.1863     -14.258023    
SHAKE stats (type/ave/delta/count) on step 710000
Bond:   1   1         1.14079e-06     6906
Angle:  1   109.47    0.000101164     3453
    710000   131.91821     -1619.6526      0             -1354.5829     -1.3079851    
SHAKE stats (type/ave/delta/count) on step 720000
Bond:   1   1         1.33935e-06     6906
Angle:  1   109.47    9.95571e-05     3453
    720000   133.356       -1610.5162      0             -1342.5575     -18.244502    
SHAKE stats (type/ave/delta/count) on step 730000
Bond:   1   1         1.6314e-06      6906
Angle:  1   109.47    0.000103925     3453
    730000   131.85698     -1609.7623      0             -1344.8156     -14.63453     
SHAKE stats (type/ave/delta/count) on step 740000
Bond:   1   1         1.35269e-06     6906
Angle:  1   109.47    0.000114664     3453
    740000   134.39758     -1613.0488      0             -1342.9971     -2.1447704    
SHAKE stats (type/ave/delta/count) on step 750000
Bond:   1   1         1.2868e-06      6906
Angle:  1   109.47    0.000100928     3453
    750000   134.54015     -1614.6162      0             -1344.2781     -13.918618    
SHAKE stats (type/ave/delta/count) on step 760000
Bond:   1   1         1.51173e-06     6906
Angle:  1   109.47    0.000106468     3453
    760000   132.88902     -1606.2462      0             -1339.2258     -5.1224334    
SHAKE stats (type/ave/delta/count) on step 770000
Bond:   1   1         1.27726e-06     6906
Angle:  1   109.47    9.11309e-05     3453
    770000   133.22678     -1608.8377      0             -1341.1387     -18.144121    
SHAKE stats (type/ave/delta/count) on step 780000
Bond:   1   1         1.31435e-06     6906
Angle:  1   109.47    0.000102191     3453
    780000   132.91805     -1613.7297      0             -1346.651      -9.1394646    
SHAKE stats (type/ave/delta/count) on step 790000
Bond:   1   1         1.3216e-06      6906
Angle:  1   109.47    9.35907e-05     3453
    790000   132.32157     -1608.2452      0             -1342.365      -9.3345208    
SHAKE stats (type/ave/delta/count) on step 800000
Bond:   1   1         1.12355e-06     6906
Angle:  1   109.47    9.52152e-05     3453
    800000   131.8732      -1609.2426      0             -1344.2633      17.693831    
SHAKE stats (type/ave/delta/count) on step 810000
Bond:   1   1         1.12495e-06     6906
Angle:  1   109.47    0.000101699     3453
    810000   132.18388     -1605.289       0             -1339.6854     -25.131567    
SHAKE stats (type/ave/delta/count) on step 820000
Bond:   1   1         1.32093e-06     6906
Angle:  1   109.47    0.000149267     3453
    820000   130.92688     -1615.0267      0             -1351.9489     -3.1251446    
SHAKE stats (type/ave/delta/count) on step 830000
Bond:   1   1         1.83249e-06     6906
Angle:  1   109.47    0.000139931     3453
    830000   132.15099     -1607.1225      0             -1341.585      -27.55841     
SHAKE stats (type/ave/delta/count) on step 840000
Bond:   1   1         1.21059e-06     6906
Angle:  1   109.47    9.62181e-05     3453
    840000   133.38578     -1615.9369      0             -1347.9183     -11.473001    
SHAKE stats (type/ave/delta/count) on step 850000
Bond:   1   1         1.23901e-06     6906
Angle:  1   109.47    9.87768e-05     3453
    850000   133.31042     -1613.6081      0             -1345.7409     -5.6166451    
SHAKE stats (type/ave/delta/count) on step 860000
Bond:   1   1         1.5301e-06      6906
Angle:  1   109.47    0.000103667     3453
    860000   132.0974      -1614.414       0             -1348.9842     -18.011029    
SHAKE stats (type/ave/delta/count) on step 870000
Bond:   1   1         1.14912e-06     6906
Angle:  1   109.47    0.000100571     3453
    870000   134.51822     -1611.718       0             -1341.424      -14.174095    
SHAKE stats (type/ave/delta/count) on step 880000
Bond:   1   1         1.14176e-06     6906
Angle:  1   109.47    8.88204e-05     3453
    880000   130.38187     -1609.1516      0             -1347.1689     -11.485102    
SHAKE stats (type/ave/delta/count) on step 890000
Bond:   1   1         1.28795e-06     6906
Angle:  1   109.47    0.000103368     3453
    890000   133.54598     -1614.4264      0             -1346.086      -9.4514131    
SHAKE stats (type/ave/delta/count) on step 900000
Bond:   1   1         1.27856e-06     6906
Angle:  1   109.47    9.33588e-05     3453
    900000   133.21747     -1607.3618      0             -1339.6814     -6.5273275    
SHAKE stats (type/ave/delta/count) on step 910000
Bond:   1   1         1.23379e-06     6906
Angle:  1   109.47    0.000109287     3453
    910000   134.34237     -1615.3337      0             -1345.393      -13.930324    
SHAKE stats (type/ave/delta/count) on step 920000
Bond:   1   1         1.23188e-06     6906
Angle:  1   109.47    0.000108444     3453
    920000   133.61925     -1608.1812      0             -1339.6935     -14.787533    
SHAKE stats (type/ave/delta/count) on step 930000
Bond:   1   1         1.53645e-06     6906
Angle:  1   109.47    0.00013742      3453
    930000   134.61815     -1601.7664      0             -1331.2716     -5.0962829    
SHAKE stats (type/ave/delta/count) on step 940000
Bond:   1   1         1.23826e-06     6906
Angle:  1   109.47    0.000104122     3453
    940000   133.95301     -1615.2364      0             -1346.078      -9.2583824    
SHAKE stats (type/ave/delta/count) on step 950000
Bond:   1   1         1.33444e-06     6906
Angle:  1   109.47    9.07887e-05     3453
    950000   132.46284     -1610.4078      0             -1344.2437     -10.117589    
SHAKE stats (type/ave/delta/count) on step 960000
Bond:   1   1         1.4273e-06      6906
Angle:  1   109.47    0.00011444      3453
    960000   133.53796     -1610.6822      0             -1342.3579     -10.543628    
SHAKE stats (type/ave/delta/count) on step 970000
Bond:   1   1         1.5362e-06      6906
Angle:  1   109.47    0.000116131     3453
    970000   134.81826     -1615.3032      0             -1344.4063     -6.5478115    
SHAKE stats (type/ave/delta/count) on step 980000
Bond:   1   1         1.26227e-06     6906
Angle:  1   109.47    0.000114102     3453
    980000   132.65586     -1617.0062      0             -1350.4543     -5.2970882    
SHAKE stats (type/ave/delta/count) on step 990000
Bond:   1   1         1.97364e-06     6906
Angle:  1   109.47    0.000116349     3453
    990000   134.23753     -1608.9998      0             -1339.2698     -6.7097685    
SHAKE stats (type/ave/delta/count) on step 1000000
Bond:   1   1         1.32217e-06     6906
Angle:  1   109.47    9.96789e-05     3453
   1000000   132.6958      -1611.5584      0             -1344.9262     -18.323686    
SHAKE stats (type/ave/delta/count) on step 1010000
Bond:   1   1         1.89774e-06     6906
Angle:  1   109.47    0.00011074      3453
   1010000   132.85265     -1614.0299      0             -1347.0826     -6.5305875    
SHAKE stats (type/ave/delta/count) on step 1020000
Bond:   1   1         1.37233e-06     6906
Angle:  1   109.47    0.000102488     3453
   1020000   133.66272     -1611.7757      0             -1343.2007     -16.778711    
SHAKE stats (type/ave/delta/count) on step 1030000
Bond:   1   1         1.54484e-06     6906
Angle:  1   109.47    9.70848e-05     3453
   1030000   132.01281     -1614.5659      0             -1349.3061     -19.159116    
SHAKE stats (type/ave/delta/count) on step 1040000
Bond:   1   1         1.59486e-06     6906
Angle:  1   109.47    0.000131207     3453
   1040000   136.35718     -1610.9935      0             -1337.0043     -16.647129    
SHAKE stats (type/ave/delta/count) on step 1050000
Bond:   1   1         1.57458e-06     6906
Angle:  1   109.47    0.000101433     3453
   1050000   132.71448     -1613.5494      0             -1346.8797     -8.2627551    
SHAKE stats (type/ave/delta/count) on step 1060000
Bond:   1   1         1.57676e-06     6906
Angle:  1   109.47    0.000119306     3453
   1060000   132.90254     -1610.3942      0             -1343.3466     -20.80671     
SHAKE stats (type/ave/delta/count) on step 1070000
Bond:   1   1         1.3835e-06      6906
Angle:  1   109.47    9.83143e-05     3453
   1070000   132.77613     -1604.3928      0             -1337.5992     -4.1470764    
SHAKE stats (type/ave/delta/count) on step 1080000
Bond:   1   1         1.10152e-06     6906
Angle:  1   109.47    0.00010204      3453
   1080000   131.97915     -1602.6203      0             -1337.4281     -2.2013586    
SHAKE stats (type/ave/delta/count) on step 1090000
Bond:   1   1         1.17585e-06     6906
Angle:  1   109.47    9.39968e-05     3453
   1090000   130.85187     -1615.4121      0             -1352.485      -12.981275    
SHAKE stats (type/ave/delta/count) on step 1100000
Bond:   1   1         1.15174e-06     6906
Angle:  1   109.47    8.72014e-05     3453
   1100000   133.34312     -1613.6139      0             -1345.681      -19.266381    
SHAKE stats (type/ave/delta/count) on step 1110000
Bond:   1   1         1.2896e-06      6906
Angle:  1   109.47    0.000102008     3453
   1110000   135.08156     -1609.5239      0             -1338.0979     -11.048658    
SHAKE stats (type/ave/delta/count) on step 1120000
Bond:   1   1         1.40391e-06     6906
Angle:  1   109.47    9.67721e-05     3453
   1120000   133.28016     -1612.367       0             -1344.5606     -7.3397246    
SHAKE stats (type/ave/delta/count) on step 1130000
Bond:   1   1         1.19654e-06     6906
Angle:  1   109.47    9.15737e-05     3453
   1130000   132.7224      -1613.2205      0             -1346.5349     -14.037038    
SHAKE stats (type/ave/delta/count) on step 1140000
Bond:   1   1         1.20217e-06     6906
Angle:  1   109.47    9.90652e-05     3453
   1140000   133.22544     -1613.1911      0             -1345.4947     -3.476093     
SHAKE stats (type/ave/delta/count) on step 1150000
Bond:   1   1         1.32788e-06     6906
Angle:  1   109.47    0.000103698     3453
   1150000   133.26523     -1612.2253      0             -1344.449      -23.290472    
SHAKE stats (type/ave/delta/count) on step 1160000
Bond:   1   1         1.25081e-06     6906
Angle:  1   109.47    0.000106168     3453
   1160000   130.14538     -1608.8524      0             -1347.345      -10.373991    
SHAKE stats (type/ave/delta/count) on step 1170000
Bond:   1   1         1.08064e-06     6906
Angle:  1   109.47    0.000100498     3453
   1170000   133.26007     -1613.1695      0             -1345.4035     -16.643327    
SHAKE stats (type/ave/delta/count) on step 1180000
Bond:   1   1         1.57125e-06     6906
Angle:  1   109.47    0.000114954     3453
   1180000   131.59643     -1611.7228      0             -1347.2996     -10.722063    
SHAKE stats (type/ave/delta/count) on step 1190000
Bond:   1   1         1.30021e-06     6906
Angle:  1   109.47    9.47781e-05     3453
   1190000   133.08728     -1607.4313      0             -1340.0125      5.6556988    
SHAKE stats (type/ave/delta/count) on step 1200000
Bond:   1   1         1.43492e-06     6906
Angle:  1   109.47    9.102e-05       3453
   1200000   134.82271     -1602.4129      0             -1331.5071     -1.3403524    
SHAKE stats (type/ave/delta/count) on step 1210000
Bond:   1   1         1.67147e-06     6906
Angle:  1   109.47    0.000112885     3453
   1210000   132.71323     -1604.0395      0             -1337.3723      9.7459225    
SHAKE stats (type/ave/delta/count) on step 1220000
Bond:   1   1         1.62773e-06     6906
Angle:  1   109.47    0.000105524     3453
   1220000   133.65434     -1617.5757      0             -1349.0175      3.5258521    
SHAKE stats (type/ave/delta/count) on step 1230000
Bond:   1   1         1.63757e-06     6906
Angle:  1   109.47    0.000129226     3453
   1230000   132.63638     -1614.2171      0             -1347.7043     -10.800642    
SHAKE stats (type/ave/delta/count) on step 1240000
Bond:   1   1         1.15382e-06     6906
Angle:  1   109.47    0.000104643     3453
   1240000   132.21541     -1610.4133      0             -1344.7464     -15.582765    
SHAKE stats (type/ave/delta/count) on step 1250000
Bond:   1   1         1.20479e-06     6906
Angle:  1   109.47    0.000100595     3453
   1250000   132.48178     -1607.6727      0             -1341.4705     -16.03956     
SHAKE stats (type/ave/delta/count) on step 1260000
Bond:   1   1         1.44775e-06     6906
Angle:  1   109.47    0.000112789     3453
   1260000   134.24696     -1613.9361      0             -1344.1871     -11.131397    
SHAKE stats (type/ave/delta/count) on step 1270000
Bond:   1   1         1.36137e-06     6906
Angle:  1   109.47    0.000102865     3453
   1270000   133.05963     -1618.3097      0             -1350.9465     -8.2866169    
SHAKE stats (type/ave/delta/count) on step 1280000
Bond:   1   1         1.27192e-06     6906
Angle:  1   109.47    9.97333e-05     3453
   1280000   132.11137     -1613.6583      0             -1348.2005     -13.326085    
SHAKE stats (type/ave/delta/count) on step 1290000
Bond:   1   1         1.21057e-06     6906
Angle:  1   109.47    0.000118776     3453
   1290000   135.49848     -1612.5484      0             -1340.2846     -16.744068    
SHAKE stats (type/ave/delta/count) on step 1300000
Bond:   1   1         1.24128e-06     6906
Angle:  1   109.47    9.31746e-05     3453
   1300000   131.41547     -1611.7599      0             -1347.7004     -10.767174    
SHAKE stats (type/ave/delta/count) on step 1310000
Bond:   1   1         1.59375e-06     6906
Angle:  1   109.47    0.000119262     3453
   1310000   134.67755     -1615.4626      0             -1344.8484     -3.1755655    
SHAKE stats (type/ave/delta/count) on step 1320000
Bond:   1   1         1.29712e-06     6906
Angle:  1   109.47    9.73949e-05     3453
   1320000   133.32809     -1606.8508      0             -1338.9481     -16.208924    
SHAKE stats (type/ave/delta/count) on step 1330000
Bond:   1   1         1.10098e-06     6906
Angle:  1   109.47    9.14977e-05     3453
   1330000   133.55752     -1615.099       0             -1346.7354     -6.7911551    
SHAKE stats (type/ave/delta/count) on step 1340000
Bond:   1   1         1.24475e-06     6906
Angle:  1   109.47    0.000122932     3453
   1340000   133.95993     -1609.936       0             -1340.7637      1.9690501    
SHAKE stats (type/ave/delta/count) on step 1350000
Bond:   1   1         1.20538e-06     6906
Angle:  1   109.47    9.12385e-05     3453
   1350000   133.24482     -1610.9479      0             -1343.2126     -6.6332834    
SHAKE stats (type/ave/delta/count) on step 1360000
Bond:   1   1         1.4854e-06      6906
Angle:  1   109.47    0.000101875     3453
   1360000   133.92614     -1612.0977      0             -1342.9934     -9.7955814    
SHAKE stats (type/ave/delta/count) on step 1370000
Bond:   1   1         1.58829e-06     6906
Angle:  1   109.47    0.000118128     3453
   1370000   132.51512     -1610.1242      0             -1343.855      -6.8684078    
SHAKE stats (type/ave/delta/count) on step 1380000
Bond:   1   1         1.21933e-06     6906
Angle:  1   109.47    9.40511e-05     3453
   1380000   133.32313     -1617.2364      0             -1349.3437     -22.464174    
SHAKE stats (type/ave/delta/count) on step 1390000
Bond:   1   1         1.21396e-06     6906
Angle:  1   109.47    8.53607e-05     3453
   1390000   132.1365      -1614.6609      0             -1349.1525     -1.4433801    
SHAKE stats (type/ave/delta/count) on step 1400000
Bond:   1   1         1.12261e-06     6906
Angle:  1   109.47    0.000100063     3453
   1400000   134.4183      -1601.617       0             -1331.5237     -20.983514    
SHAKE stats (type/ave/delta/count) on step 1410000
Bond:   1   1         1.2595e-06      6906
Angle:  1   109.47    9.94728e-05     3453
   1410000   133.46852     -1612.0578      0             -1343.873      -13.180743    
SHAKE stats (type/ave/delta/count) on step 1420000
Bond:   1   1         1.18202e-06     6906
Angle:  1   109.47    9.64276e-05     3453
   1420000   132.21599     -1614.5316      0             -1348.8635     -12.596384    
SHAKE stats (type/ave/delta/count) on step 1430000
Bond:   1   1         1.17604e-06     6906
Angle:  1   109.47    0.000104037     3453
   1430000   134.00138     -1617.2006      0             -1347.945      -21.239542    
SHAKE stats (type/ave/delta/count) on step 1440000
Bond:   1   1         1.13909e-06     6906
Angle:  1   109.47    9.13021e-05     3453
   1440000   134.67734     -1613.6152      0             -1343.0014     -0.79308774   
SHAKE stats (type/ave/delta/count) on step 1450000
Bond:   1   1         1.15062e-06     6906
Angle:  1   109.47    9.92319e-05     3453
   1450000   132.19527     -1610.897       0             -1345.2706     -16.395874    
SHAKE stats (type/ave/delta/count) on step 1460000
Bond:   1   1         1.37484e-06     6906
Angle:  1   109.47    0.000107358     3453
   1460000   133.61925     -1617.2832      0             -1348.7955     -16.832274    
SHAKE stats (type/ave/delta/count) on step 1470000
Bond:   1   1         1.7663e-06      6906
Angle:  1   109.47    0.000125477     3453
   1470000   133.19254     -1613.1359      0             -1345.5056     -12.400996    
SHAKE stats (type/ave/delta/count) on step 1480000
Bond:   1   1         1.54772e-06     6906
Angle:  1   109.47    0.000104825     3453
   1480000   133.09381     -1618.2673      0             -1350.8354     -0.57480385   
SHAKE stats (type/ave/delta/count) on step 1490000
Bond:   1   1         1.32141e-06     6906
Angle:  1   109.47    0.000113807     3453
   1490000   131.05146     -1613.1625      0             -1349.8344     -15.31636     
SHAKE stats (type/ave/delta/count) on step 1500000
Bond:   1   1         1.17927e-06     6906
Angle:  1   109.47    9.44967e-05     3453
   1500000   131.04587     -1611.7393      0             -1348.4224     -9.4750424    
SHAKE stats (type/ave/delta/count) on step 1510000
Bond:   1   1         1.24209e-06     6906
Angle:  1   109.47    9.61502e-05     3453
   1510000   134.64436     -1610.2354      0             -1339.6879     -11.765322    
SHAKE stats (type/ave/delta/count) on step 1520000
Bond:   1   1         1.26967e-06     6906
Angle:  1   109.47    9.90848e-05     3453
   1520000   132.16066     -1614.9789      0             -1349.422      -10.284098    
SHAKE stats (type/ave/delta/count) on step 1530000
Bond:   1   1         1.2342e-06      6906
Angle:  1   109.47    9.17691e-05     3453
   1530000   135.52372     -1614.3308      0             -1342.0163     -3.2293898    
SHAKE stats (type/ave/delta/count) on step 1540000
Bond:   1   1         1.16514e-06     6906
Angle:  1   109.47    9.27598e-05     3453
   1540000   134.36894     -1618.7083      0             -1348.7142     -12.035998    
SHAKE stats (type/ave/delta/count) on step 1550000
Bond:   1   1         1.40128e-06     6906
Angle:  1   109.47    0.000103189     3453
   1550000   132.7996      -1609.5346      0             -1342.6939     -1.7080593    
SHAKE stats (type/ave/delta/count) on step 1560000
Bond:   1   1         1.23706e-06     6906
Angle:  1   109.47    0.000100195     3453
   1560000   132.5105      -1613.2355      0             -1346.9757     -16.286435    
SHAKE stats (type/ave/delta/count) on step 1570000
Bond:   1   1         1.2948e-06      6906
Angle:  1   109.47    0.000110137     3453
   1570000   133.76185     -1621.7037      0             -1352.9294     -5.582439     
SHAKE stats (type/ave/delta/count) on step 1580000
Bond:   1   1         1.61603e-06     6906
Angle:  1   109.47    9.92637e-05     3453
   1580000   135.76322     -1612.6083      0             -1339.8126     -7.6723201    
SHAKE stats (type/ave/delta/count) on step 1590000
Bond:   1   1         1.25356e-06     6906
Angle:  1   109.47    9.5373e-05      3453
   1590000   132.46362     -1611.4515      0             -1345.2858      6.2506326    
SHAKE stats (type/ave/delta/count) on step 1600000
Bond:   1   1         1.16433e-06     6906
Angle:  1   109.47    9.98365e-05     3453
   1600000   132.79708     -1603.5853      0             -1336.7496     -10.635839    
SHAKE stats (type/ave/delta/count) on step 1610000
Bond:   1   1         1.33654e-06     6906
Angle:  1   109.47    0.000100964     3453
   1610000   134.56995     -1613.846       0             -1343.4481      6.6147163    
SHAKE stats (type/ave/delta/count) on step 1620000
Bond:   1   1         1.45607e-06     6906
Angle:  1   109.47    9.00922e-05     3453
   1620000   134.0082      -1610.7741      0             -1341.5048     -10.629074    
SHAKE stats (type/ave/delta/count) on step 1630000
Bond:   1   1         1.34819e-06     6906
Angle:  1   109.47    0.00010134      3453
   1630000   132.90172     -1612.3314      0             -1345.2854     -17.969558    
SHAKE stats (type/ave/delta/count) on step 1640000
Bond:   1   1         1.30667e-06     6906
Angle:  1   109.47    9.37396e-05     3453
   1640000   129.68542     -1614.7406      0             -1354.1573     -15.697604    
SHAKE stats (type/ave/delta/count) on step 1650000
Bond:   1   1         1.13721e-06     6906
Angle:  1   109.47    9.92067e-05     3453
   1650000   134.24694     -1607.8486      0             -1338.0997     -18.997926    
SHAKE stats (type/ave/delta/count) on step 1660000
Bond:   1   1         1.18806e-06     6906
Angle:  1   109.47    0.00011876      3453
   1660000   133.95238     -1608.568       0             -1339.4109      3.0625694    
SHAKE stats (type/ave/delta/count) on step 1670000
Bond:   1   1         1.15262e-06     6906
Angle:  1   109.47    9.73743e-05     3453
   1670000   136.14231     -1614.2154      0             -1340.658      -12.341547    
SHAKE stats (type/ave/delta/count) on step 1680000
Bond:   1   1         1.19942e-06     6906
Angle:  1   109.47    9.91549e-05     3453
   1680000   133.72939     -1612.6562      0             -1343.9472     -16.993027    
SHAKE stats (type/ave/delta/count) on step 1690000
Bond:   1   1         1.12672e-06     6906
Angle:  1   109.47    0.000101338     3453
   1690000   132.23207     -1616.713       0             -1351.0126      1.2915559    
SHAKE stats (type/ave/delta/count) on step 1700000
Bond:   1   1         1.14276e-06     6906
Angle:  1   109.47    9.40562e-05     3453
   1700000   132.68107     -1617.7328      0             -1351.1303     -8.7426292    
SHAKE stats (type/ave/delta/count) on step 1710000
Bond:   1   1         1.18861e-06     6906
Angle:  1   109.47    0.000101041     3453
   1710000   130.71348     -1608.5341      0             -1345.8851     -11.033621    
SHAKE stats (type/ave/delta/count) on step 1720000
Bond:   1   1         1.22646e-06     6906
Angle:  1   109.47    9.85807e-05     3453
   1720000   132.05725     -1612.9681      0             -1347.619      -14.963706    
SHAKE stats (type/ave/delta/count) on step 1730000
Bond:   1   1         1.48373e-06     6906
Angle:  1   109.47    9.72241e-05     3453
   1730000   132.45763     -1613.8125      0             -1347.6589     -7.5707643    
SHAKE stats (type/ave/delta/count) on step 1740000
Bond:   1   1         1.27454e-06     6906
Angle:  1   109.47    9.86051e-05     3453
   1740000   131.67953     -1614.3667      0             -1349.7766     -10.627349    
SHAKE stats (type/ave/delta/count) on step 1750000
Bond:   1   1         1.43427e-06     6906
Angle:  1   109.47    9.44878e-05     3453
   1750000   134.29679     -1613.9606      0             -1344.1115     -9.9684191    
SHAKE stats (type/ave/delta/count) on step 1760000
Bond:   1   1         1.18876e-06     6906
Angle:  1   109.47    0.000100086     3453
   1760000   135.4745      -1609.2576      0             -1337.042      -5.786979     
SHAKE stats (type/ave/delta/count) on step 1770000
Bond:   1   1         1.31363e-06     6906
Angle:  1   109.47    9.44208e-05     3453
   1770000   135.78454     -1610.0185      0             -1337.18       -16.642371    
SHAKE stats (type/ave/delta/count) on step 1780000
Bond:   1   1         1.3212e-06      6906
Angle:  1   109.47    9.65923e-05     3453
   1780000   132.34884     -1610.4426      0             -1344.5076     -0.51906245   
SHAKE stats (type/ave/delta/count) on step 1790000
Bond:   1   1         1.4332e-06      6906
Angle:  1   109.47    0.000102753     3453
   1790000   135.34691     -1614.2466      0             -1342.2874     -5.1860126    
SHAKE stats (type/ave/delta/count) on step 1800000
Bond:   1   1         1.54169e-06     6906
Angle:  1   109.47    0.00010203      3453
   1800000   134.55508     -1619.23        0             -1348.8619     -8.3444039    
SHAKE stats (type/ave/delta/count) on step 1810000
Bond:   1   1         1.79069e-06     6906
Angle:  1   109.47    0.000127328     3453
   1810000   133.70914     -1612.519       0             -1343.8507     -16.176442    
SHAKE stats (type/ave/delta/count) on step 1820000
Bond:   1   1         1.16741e-06     6906
Angle:  1   109.47    8.94113e-05     3453
   1820000   135.22313     -1616.0418      0             -1344.3313     -2.2075924    
SHAKE stats (type/ave/delta/count) on step 1830000
Bond:   1   1         1.30893e-06     6906
Angle:  1   109.47    9.67252e-05     3453
   1830000   132.62036     -1611.6264      0             -1345.1458     -16.980283    
SHAKE stats (type/ave/delta/count) on step 1840000
Bond:   1   1         1.25054e-06     6906
Angle:  1   109.47    9.26006e-05     3453
   1840000   133.42342     -1607.0022      0             -1338.908      -11.575673    
SHAKE stats (type/ave/delta/count) on step 1850000
Bond:   1   1         1.153e-06       6906
Angle:  1   109.47    9.99253e-05     3453
   1850000   132.41756     -1611.8725      0             -1345.7994     -13.975839    
SHAKE stats (type/ave/delta/count) on step 1860000
Bond:   1   1         1.15702e-06     6906
Angle:  1   109.47    0.000107692     3453
   1860000   132.25687     -1617.1043      0             -1351.3541     -5.3808313    
SHAKE stats (type/ave/delta/count) on step 1870000
Bond:   1   1         1.28409e-06     6906
Angle:  1   109.47    0.000112344     3453
   1870000   131.52338     -1613.0583      0             -1348.782      -9.5075835    
SHAKE stats (type/ave/delta/count) on step 1880000
Bond:   1   1         1.67639e-06     6906
Angle:  1   109.47    0.000140298     3453
   1880000   135.38362     -1615.8902      0             -1343.8572     -3.2260068    
SHAKE stats (type/ave/delta/count) on step 1890000
Bond:   1   1         1.13038e-06     6906
Angle:  1   109.47    0.000115222     3453
   1890000   131.75799     -1607.3823      0             -1342.6345     -17.269586    
SHAKE stats (type/ave/delta/count) on step 1900000
Bond:   1   1         1.18556e-06     6906
Angle:  1   109.47    0.000108365     3453
   1900000   132.4609      -1610.6126      0             -1344.4524     -18.741706    
SHAKE stats (type/ave/delta/count) on step 1910000
Bond:   1   1         1.37827e-06     6906
Angle:  1   109.47    8.97738e-05     3453
   1910000   131.44034     -1614.1256      0             -1350.016      -6.6965729    
SHAKE stats (type/ave/delta/count) on step 1920000
Bond:   1   1         1.45024e-06     6906
Angle:  1   109.47    9.56051e-05     3453
   1920000   133.55042     -1611.7318      0             -1343.3824     -15.526266    
SHAKE stats (type/ave/delta/count) on step 1930000
Bond:   1   1         1.46378e-06     6906
Angle:  1   109.47    0.000113873     3453
   1930000   134.28974     -1614.5815      0             -1344.7466     -12.990906    
SHAKE stats (type/ave/delta/count) on step 1940000
Bond:   1   1         1.27961e-06     6906
Angle:  1   109.47    9.04728e-05     3453
   1940000   131.57124     -1611.0205      0             -1346.648       0.90319082   
SHAKE stats (type/ave/delta/count) on step 1950000
Bond:   1   1         1.19773e-06     6906
Angle:  1   109.47    9.98317e-05     3453
   1950000   129.86912     -1608.9719      0             -1348.0195     -11.424673    
SHAKE stats (type/ave/delta/count) on step 1960000
Bond:   1   1         1.38114e-06     6906
Angle:  1   109.47    0.000106776     3453
   1960000   131.40686     -1611.4339      0             -1347.3917     -6.8137765    
SHAKE stats (type/ave/delta/count) on step 1970000
Bond:   1   1         1.10831e-06     6906
Angle:  1   109.47    9.85014e-05     3453
   1970000   131.99664     -1614.4969      0             -1349.2696     -17.774318    
SHAKE stats (type/ave/delta/count) on step 1980000
Bond:   1   1         1.34002e-06     6906
Angle:  1   109.47    9.88516e-05     3453
   1980000   133.75015     -1614.9137      0             -1346.163       6.6897903    
SHAKE stats (type/ave/delta/count) on step 1990000
Bond:   1   1         1.73535e-06     6906
Angle:  1   109.47    0.000120846     3453
   1990000   131.41307     -1615.8071      0             -1351.7523     -17.249468    
SHAKE stats (type/ave/delta/count) on step 2000000
Bond:   1   1         1.2851e-06      6906
Angle:  1   109.47    9.97973e-05     3453
   2000000   131.79128     -1614.3323      0             -1349.5176     -0.085960705  
SHAKE stats (type/ave/delta/count) on step 2010000
Bond:   1   1         1.21884e-06     6906
Angle:  1   109.47    0.000107675     3453
   2010000   133.87063     -1618.1146      0             -1349.1218     -8.3832611    
SHAKE stats (type/ave/delta/count) on step 2020000
Bond:   1   1         1.57359e-06     6906
Angle:  1   109.47    9.30664e-05     3453
   2020000   134.73837     -1606.5523      0             -1335.8158     -14.038865    
SHAKE stats (type/ave/delta/count) on step 2030000
Bond:   1   1         1.62928e-06     6906
Angle:  1   109.47    0.000116577     3453
   2030000   133.65247     -1607.6629      0             -1339.1085     -17.812931    
SHAKE stats (type/ave/delta/count) on step 2040000
Bond:   1   1         1.21936e-06     6906
Angle:  1   109.47    9.10653e-05     3453
   2040000   134.77898     -1611.4777      0             -1340.6597      5.3292174    
SHAKE stats (type/ave/delta/count) on step 2050000
Bond:   1   1         1.02081e-06     6906
Angle:  1   109.47    9.8064e-05      3453
   2050000   133.02488     -1613.394       0             -1346.1006     -14.415577    
SHAKE stats (type/ave/delta/count) on step 2060000
Bond:   1   1         1.32636e-06     6906
Angle:  1   109.47    0.00010402      3453
   2060000   131.52064     -1612.7544      0             -1348.4836     -9.4930647    
SHAKE stats (type/ave/delta/count) on step 2070000
Bond:   1   1         1.3049e-06      6906
Angle:  1   109.47    9.5992e-05      3453
   2070000   133.35333     -1622.6879      0             -1354.7346     -12.751386    
SHAKE stats (type/ave/delta/count) on step 2080000
Bond:   1   1         1.37633e-06     6906
Angle:  1   109.47    0.00011961      3453
   2080000   132.44107     -1612.4309      0             -1346.3106     -15.620022    
SHAKE stats (type/ave/delta/count) on step 2090000
Bond:   1   1         1.62559e-06     6906
Angle:  1   109.47    0.000129888     3453
   2090000   134.37323     -1612.7411      0             -1342.7384     -5.2856548    
SHAKE stats (type/ave/delta/count) on step 2100000
Bond:   1   1         1.35522e-06     6906
Angle:  1   109.47    0.000100881     3453
   2100000   133.62958     -1609.8091      0             -1341.3006      2.1232078    
SHAKE stats (type/ave/delta/count) on step 2110000
Bond:   1   1         1.09376e-06     6906
Angle:  1   109.47    9.6977e-05      3453
   2110000   133.70788     -1610.2595      0             -1341.5937     -6.8414369    
SHAKE stats (type/ave/delta/count) on step 2120000
Bond:   1   1         1.11274e-06     6906
Angle:  1   109.47    8.8916e-05      3453
   2120000   133.17142     -1612.0767      0             -1344.4889     -7.5790303    
SHAKE stats (type/ave/delta/count) on step 2130000
Bond:   1   1         1.7129e-06      6906
Angle:  1   109.47    9.99843e-05     3453
   2130000   132.58895     -1610.7927      0             -1344.3752     -19.480321    
SHAKE stats (type/ave/delta/count) on step 2140000
Bond:   1   1         1.51442e-06     6906
Angle:  1   109.47    0.000102173     3453
   2140000   134.61683     -1608.6045      0             -1338.1123     -0.28892987   
SHAKE stats (type/ave/delta/count) on step 2150000
Bond:   1   1         1.20193e-06     6906
Angle:  1   109.47    0.000106791     3453
   2150000   135.06156     -1617.0695      0             -1345.6837     -15.687954    
SHAKE stats (type/ave/delta/count) on step 2160000
Bond:   1   1         1.14899e-06     6906
Angle:  1   109.47    8.89529e-05     3453
   2160000   131.77026     -1611.9005      0             -1347.1281     -12.176092    
SHAKE stats (type/ave/delta/count) on step 2170000
Bond:   1   1         1.19949e-06     6906
Angle:  1   109.47    8.85405e-05     3453
   2170000   134.02033     -1614.5021      0             -1345.2085     -5.6155144    
SHAKE stats (type/ave/delta/count) on step 2180000
Bond:   1   1         1.28474e-06     6906
Angle:  1   109.47    9.76475e-05     3453
   2180000   133.92391     -1606.285       0             -1337.1851     -13.340109    
SHAKE stats (type/ave/delta/count) on step 2190000
Bond:   1   1         1.30472e-06     6906
Angle:  1   109.47    0.000114314     3453
   2190000   134.73664     -1606.327       0             -1335.5941     -1.0738277    
SHAKE stats (type/ave/delta/count) on step 2200000
Bond:   1   1         1.68187e-06     6906
Angle:  1   109.47    0.000113024     3453
   2200000   133.27431     -1609.0991      0             -1341.3045     -6.8758417    
SHAKE stats (type/ave/delta/count) on step 2210000
Bond:   1   1         1.29708e-06     6906
Angle:  1   109.47    0.000128764     3453
   2210000   131.83797     -1612.2905      0             -1347.3821     -14.342616    
SHAKE stats (type/ave/delta/count) on step 2220000
Bond:   1   1         1.21169e-06     6906
Angle:  1   109.47    0.00010062      3453
   2220000   132.40174     -1618.0545      0             -1352.0132     -1.7598695    
SHAKE stats (type/ave/delta/count) on step 2230000
Bond:   1   1         1.15738e-06     6906
Angle:  1   109.47    0.000100717     3453
   2230000   132.51099     -1612.4097      0             -1346.1488     -8.8948533    
SHAKE stats (type/ave/delta/count) on step 2240000
Bond:   1   1         1.27645e-06     6906
Angle:  1   109.47    9.71508e-05     3453
   2240000   130.96359     -1605.6013      0             -1342.4498     -8.173317     
SHAKE stats (type/ave/delta/count) on step 2250000
Bond:   1   1         1.35187e-06     6906
Angle:  1   109.47    0.000102528     3453
   2250000   133.13285     -1608.0947      0             -1340.5843     -10.501601    
SHAKE stats (type/ave/delta/count) on step 2260000
Bond:   1   1         1.19637e-06     6906
Angle:  1   109.47    9.96162e-05     3453
   2260000   133.66524     -1618.0919      0             -1349.5118     -5.916934     
SHAKE stats (type/ave/delta/count) on step 2270000
Bond:   1   1         1.30614e-06     6906
Angle:  1   109.47    0.000107367     3453
   2270000   131.58829     -1616.555       0             -1352.1482     -9.2890137    
SHAKE stats (type/ave/delta/count) on step 2280000
Bond:   1   1         1.2013e-06      6906
Angle:  1   109.47    9.83726e-05     3453
   2280000   131.26664     -1614.8554      0             -1351.0949     -5.0325676    
SHAKE stats (type/ave/delta/count) on step 2290000
Bond:   1   1         1.22705e-06     6906
Angle:  1   109.47    0.000108327     3453
   2290000   135.38145     -1610.0433      0             -1338.0148     -20.626605    
SHAKE stats (type/ave/delta/count) on step 2300000
Bond:   1   1         1.52857e-06     6906
Angle:  1   109.47    0.000112875     3453
   2300000   133.12002     -1613.9968      0             -1346.5122     -9.2439216    
SHAKE stats (type/ave/delta/count) on step 2310000
Bond:   1   1         1.14563e-06     6906
Angle:  1   109.47    0.000101616     3453
   2310000   133.92045     -1611.0324      0             -1341.9395     -13.150106    
SHAKE stats (type/ave/delta/count) on step 2320000
Bond:   1   1         1.64419e-06     6906
Angle:  1   109.47    0.000134747     3453
   2320000   131.71893     -1617.5637      0             -1352.8944     -10.470173    
SHAKE stats (type/ave/delta/count) on step 2330000
Bond:   1   1         1.45749e-06     6906
Angle:  1   109.47    9.81892e-05     3453
   2330000   132.70701     -1613.6123      0             -1346.9576     -9.2509856    
SHAKE stats (type/ave/delta/count) on step 2340000
Bond:   1   1         1.17609e-06     6906
Angle:  1   109.47    8.81002e-05     3453
   2340000   132.96018     -1610.7284      0             -1343.565      -10.050488    
SHAKE stats (type/ave/delta/count) on step 2350000
Bond:   1   1         1.37531e-06     6906
Angle:  1   109.47    9.97803e-05     3453
   2350000   133.4438      -1608.5067      0             -1340.3716     -19.536974    
SHAKE stats (type/ave/delta/count) on step 2360000
Bond:   1   1         1.22851e-06     6906
Angle:  1   109.47    0.000110824     3453
   2360000   133.42887     -1613.9121      0             -1345.8069      3.1136618    
SHAKE stats (type/ave/delta/count) on step 2370000
Bond:   1   1         1.34938e-06     6906
Angle:  1   109.47    0.000124569     3453
   2370000   134.0749      -1608.7648      0             -1339.3616     -7.801822     
SHAKE stats (type/ave/delta/count) on step 2380000
Bond:   1   1         1.31436e-06     6906
Angle:  1   109.47    9.19906e-05     3453
   2380000   130.67889     -1620.346       0             -1357.7665     -7.3690965    
SHAKE stats (type/ave/delta/count) on step 2390000
Bond:   1   1         1.10714e-06     6906
Angle:  1   109.47    9.58209e-05     3453
   2390000   131.35043     -1604.4253      0             -1340.4965     -8.6704672    
SHAKE stats (type/ave/delta/count) on step 2400000
Bond:   1   1         1.34594e-06     6906
Angle:  1   109.47    0.000106788     3453
   2400000   133.35794     -1620.9096      0             -1352.947      -13.538401    
SHAKE stats (type/ave/delta/count) on step 2410000
Bond:   1   1         1.25513e-06     6906
Angle:  1   109.47    9.35851e-05     3453
   2410000   132.6053      -1611.815       0             -1345.3647     -2.7405646    
SHAKE stats (type/ave/delta/count) on step 2420000
Bond:   1   1         1.37011e-06     6906
Angle:  1   109.47    9.92556e-05     3453
   2420000   134.00831     -1606.2735      0             -1337.0041     -3.0254095    
SHAKE stats (type/ave/delta/count) on step 2430000
Bond:   1   1         1.27568e-06     6906
Angle:  1   109.47    0.000101097     3453
   2430000   134.65696     -1619.7093      0             -1349.1365     -12.484126    
SHAKE stats (type/ave/delta/count) on step 2440000
Bond:   1   1         1.44864e-06     6906
Angle:  1   109.47    0.000100116     3453
   2440000   136.55659     -1608.1954      0             -1333.8055     -2.4483391    
SHAKE stats (type/ave/delta/count) on step 2450000
Bond:   1   1         1.30484e-06     6906
Angle:  1   109.47    0.000108968     3453
   2450000   132.54651     -1610.1668      0             -1343.8346     -15.289139    
SHAKE stats (type/ave/delta/count) on step 2460000
Bond:   1   1         1.11656e-06     6906
Angle:  1   109.47    9.48577e-05     3453
   2460000   134.3987      -1614.1416      0             -1344.0877     -17.020877    
SHAKE stats (type/ave/delta/count) on step 2470000
Bond:   1   1         1.33649e-06     6906
Angle:  1   109.47    0.000106432     3453
   2470000   134.76816     -1607.9992      0             -1337.203      -11.030258    
SHAKE stats (type/ave/delta/count) on step 2480000
Bond:   1   1         1.45098e-06     6906
Angle:  1   109.47    0.000101591     3453
   2480000   134.86029     -1604.1261      0             -1333.1447     -8.1301261    
SHAKE stats (type/ave/delta/count) on step 2490000
Bond:   1   1         1.49166e-06     6906
Angle:  1   109.47    0.000108854     3453
   2490000   131.82772     -1617.2301      0             -1352.3423     -5.4521234    
SHAKE stats (type/ave/delta/count) on step 2500000
Bond:   1   1         1.24043e-06     6906
Angle:  1   109.47    9.39505e-05     3453
   2500000   130.61441     -1598.5565      0             -1336.1066     -5.3961899    
SHAKE stats (type/ave/delta/count) on step 2510000
Bond:   1   1         1.4563e-06      6906
Angle:  1   109.47    0.000103955     3453
   2510000   134.02561     -1605.7021      0             -1336.3979     -0.73104341   
SHAKE stats (type/ave/delta/count) on step 2520000
Bond:   1   1         1.31019e-06     6906
Angle:  1   109.47    9.8753e-05      3453
   2520000   134.19551     -1611.9777      0             -1342.3321     -15.133098    
SHAKE stats (type/ave/delta/count) on step 2530000
Bond:   1   1         1.11217e-06     6906
Angle:  1   109.47    8.9322e-05      3453
   2530000   133.21033     -1613.7409      0             -1346.0749      1.9753148    
SHAKE stats (type/ave/delta/count) on step 2540000
Bond:   1   1         1.23767e-06     6906
Angle:  1   109.47    9.95077e-05     3453
   2540000   134.72042     -1617.3646      0             -1346.6642     -0.52621845   
SHAKE stats (type/ave/delta/count) on step 2550000
Bond:   1   1         1.32739e-06     6906
Angle:  1   109.47    0.000121818     3453
   2550000   132.36186     -1620.5875      0             -1354.6263     -3.9948659    
SHAKE stats (type/ave/delta/count) on step 2560000
Bond:   1   1         1.32871e-06     6906
Angle:  1   109.47    9.36102e-05     3453
   2560000   134.34455     -1610.6533      0             -1340.7082     -6.8770541    
SHAKE stats (type/ave/delta/count) on step 2570000
Bond:   1   1         1.51109e-06     6906
Angle:  1   109.47    0.000110656     3453
   2570000   133.30454     -1618.3675      0             -1350.5121      9.1149969    
SHAKE stats (type/ave/delta/count) on step 2580000
Bond:   1   1         1.3e-06         6906
Angle:  1   109.47    0.000102343     3453
   2580000   129.97302     -1612.8085      0             -1351.6474     -15.150481    
SHAKE stats (type/ave/delta/count) on step 2590000
Bond:   1   1         1.32805e-06     6906
Angle:  1   109.47    0.000128658     3453
   2590000   133.64655     -1612.3506      0             -1343.808      -11.703035    
SHAKE stats (type/ave/delta/count) on step 2600000
Bond:   1   1         1.38692e-06     6906
Angle:  1   109.47    0.000110072     3453
   2600000   133.56463     -1610.3075      0             -1341.9296     -5.4050573    
SHAKE stats (type/ave/delta/count) on step 2610000
Bond:   1   1         1.19212e-06     6906
Angle:  1   109.47    9.96862e-05     3453
   2610000   134.84794     -1616.0943      0             -1345.1377      9.8843655    
SHAKE stats (type/ave/delta/count) on step 2620000
Bond:   1   1         1.72718e-06     6906
Angle:  1   109.47    0.000128937     3453
   2620000   134.56254     -1616.8374      0             -1346.4543     -2.06284      
SHAKE stats (type/ave/delta/count) on step 2630000
Bond:   1   1         1.34337e-06     6906
Angle:  1   109.47    9.22067e-05     3453
   2630000   134.50365     -1608.0469      0             -1337.7822     -10.846252    
SHAKE stats (type/ave/delta/count) on step 2640000
Bond:   1   1         1.49628e-06     6906
Angle:  1   109.47    9.6699e-05      3453
   2640000   132.41514     -1615.3746      0             -1349.3063     -8.0822177    
SHAKE stats (type/ave/delta/count) on step 2650000
Bond:   1   1         1.5653e-06      6906
Angle:  1   109.47    9.46787e-05     3453
   2650000   133.21062     -1608.1323      0             -1340.4657     -12.144368    
SHAKE stats (type/ave/delta/count) on step 2660000
Bond:   1   1         1.31888e-06     6906
Angle:  1   109.47    0.000119186     3453
   2660000   133.44226     -1616.7924      0             -1348.6603     -7.0149321    
SHAKE stats (type/ave/delta/count) on step 2670000
Bond:   1   1         1.37602e-06     6906
Angle:  1   109.47    0.000107584     3453
   2670000   132.1338      -1605.8694      0             -1340.3665     -9.7077447    
SHAKE stats (type/ave/delta/count) on step 2680000
Bond:   1   1         1.42134e-06     6906
Angle:  1   109.47    9.83121e-05     3453
   2680000   133.59326     -1605.4096      0             -1336.9741     -5.7531242    
SHAKE stats (type/ave/delta/count) on step 2690000
Bond:   1   1         1.35668e-06     6906
Angle:  1   109.47    0.000114508     3453
   2690000   132.95091     -1611.4999      0             -1344.3551     -16.998569    
SHAKE stats (type/ave/delta/count) on step 2700000
Bond:   1   1         1.33291e-06     6906
Angle:  1   109.47    9.63956e-05     3453
   2700000   132.20492     -1602.2565      0             -1336.6107     -0.87688565   
SHAKE stats (type/ave/delta/count) on step 2710000
Bond:   1   1         1.47021e-06     6906
Angle:  1   109.47    0.00011767      3453
   2710000   130.92416     -1608.8797      0             -1345.8074     -14.962082    
SHAKE stats (type/ave/delta/count) on step 2720000
Bond:   1   1         1.50625e-06     6906
Angle:  1   109.47    0.000102663     3453
   2720000   131.77264     -1604.909       0             -1340.1318     -14.462217    
SHAKE stats (type/ave/delta/count) on step 2730000
Bond:   1   1         1.20367e-06     6906
Angle:  1   109.47    8.98954e-05     3453
   2730000   132.77373     -1616.1988      0             -1349.41        6.0750115    
SHAKE stats (type/ave/delta/count) on step 2740000
Bond:   1   1         1.3546e-06      6906
Angle:  1   109.47    0.000152675     3453
   2740000   133.08231     -1611.9719      0             -1344.5631     -13.067544    
SHAKE stats (type/ave/delta/count) on step 2750000
Bond:   1   1         1.16432e-06     6906
Angle:  1   109.47    9.65616e-05     3453
   2750000   132.33986     -1627.5124      0             -1361.5954     -5.814183     
SHAKE stats (type/ave/delta/count) on step 2760000
Bond:   1   1         1.39474e-06     6906
Angle:  1   109.47    0.000100235     3453
   2760000   134.19201     -1620.9094      0             -1351.2709     -5.2058417    
SHAKE stats (type/ave/delta/count) on step 2770000
Bond:   1   1         1.21281e-06     6906
Angle:  1   109.47    0.00010533      3453
   2770000   133.34368     -1607.9469      0             -1340.0129     -23.901769    
SHAKE stats (type/ave/delta/count) on step 2780000
Bond:   1   1         1.34398e-06     6906
Angle:  1   109.47    9.65088e-05     3453
   2780000   132.10097     -1616.3706      0             -1350.9336     -3.3236077    
SHAKE stats (type/ave/delta/count) on step 2790000
Bond:   1   1         1.32519e-06     6906
Angle:  1   109.47    9.82493e-05     3453
   2790000   133.99557     -1613.5296      0             -1344.2857     -5.2566382    
SHAKE stats (type/ave/delta/count) on step 2800000
Bond:   1   1         1.29569e-06     6906
Angle:  1   109.47    0.000110446     3453
   2800000   131.86376     -1609.6486      0             -1344.6883     -14.340348    
SHAKE stats (type/ave/delta/count) on step 2810000
Bond:   1   1         1.56829e-06     6906
Angle:  1   109.47    0.000106331     3453
   2810000   134.718       -1608.6833      0             -1337.9879     -7.0790732    
SHAKE stats (type/ave/delta/count) on step 2820000
Bond:   1   1         1.17781e-06     6906
Angle:  1   109.47    9.32451e-05     3453
   2820000   133.48068     -1609.4172      0             -1341.2079     -11.411469    
SHAKE stats (type/ave/delta/count) on step 2830000
Bond:   1   1         1.37606e-06     6906
Angle:  1   109.47    0.000103753     3453
   2830000   132.55238     -1610.7759      0             -1344.4319     -12.685255    
SHAKE stats (type/ave/delta/count) on step 2840000
Bond:   1   1         1.47961e-06     6906
Angle:  1   109.47    9.58324e-05     3453
   2840000   133.15858     -1609.1377      0             -1341.5756      0.25453025   
SHAKE stats (type/ave/delta/count) on step 2850000
Bond:   1   1         1.63159e-06     6906
[...]
SHAKE stats (type/ave/delta/count) on step 9220000
Bond:   1   1         1.93799e-06     6906
Angle:  1   109.47    0.000150222     3453
   9220000   135.55038     -1609.8733      0             -1337.5053     -3.9391505    
SHAKE stats (type/ave/delta/count) on step 9230000
Bond:   1   1         1.26272e-06     6906
Angle:  1   109.47    9.11178e-05     3453
   9230000   134.86926     -1613.9578      0             -1342.9584     -12.632352    
SHAKE stats (type/ave/delta/count) on step 9240000
Bond:   1   1         1.32536e-06     6906
Angle:  1   109.47    0.00010954      3453
   9240000   134.54066     -1617.4423      0             -1347.1032      1.2085534    
SHAKE stats (type/ave/delta/count) on step 9250000
Bond:   1   1         1.19196e-06     6906
Angle:  1   109.47    0.000100211     3453
   9250000   132.19375     -1612.8985      0             -1347.2751     -12.143594    
SHAKE stats (type/ave/delta/count) on step 9260000
Bond:   1   1         1.3199e-06      6906
Angle:  1   109.47    9.55847e-05     3453
   9260000   134.6623      -1606.859       0             -1336.2755     -6.0781607    
SHAKE stats (type/ave/delta/count) on step 9270000
Bond:   1   1         1.65715e-06     6906
Angle:  1   109.47    0.000106313     3453
   9270000   133.49757     -1608.6028      0             -1340.3596     -13.454654    
SHAKE stats (type/ave/delta/count) on step 9280000
Bond:   1   1         1.22056e-06     6906
Angle:  1   109.47    9.49988e-05     3453
   9280000   133.08303     -1612.8389      0             -1345.4287     -15.450378    
SHAKE stats (type/ave/delta/count) on step 9290000
Bond:   1   1         1.27616e-06     6906
Angle:  1   109.47    0.000113586     3453
   9290000   134.46337     -1615.9243      0             -1345.7405     -15.544958    
SHAKE stats (type/ave/delta/count) on step 9300000
Bond:   1   1         1.39905e-06     6906
Angle:  1   109.47    0.00011541      3453
   9300000   133.63157     -1613.4523      0             -1344.9399     -13.518225    
SHAKE stats (type/ave/delta/count) on step 9310000
Bond:   1   1         1.22337e-06     6906
Angle:  1   109.47    9.2852e-05      3453
   9310000   134.73753     -1604.3452      0             -1333.6105     -16.121751    
SHAKE stats (type/ave/delta/count) on step 9320000
Bond:   1   1         1.32825e-06     6906
Angle:  1   109.47    9.74352e-05     3453
   9320000   132.46551     -1613.6625      0             -1347.493      -8.6829231    
SHAKE stats (type/ave/delta/count) on step 9330000
Bond:   1   1         1.24305e-06     6906
Angle:  1   109.47    0.000103919     3453
   9330000   133.71228     -1609.214       0             -1340.5393     -24.854087    
SHAKE stats (type/ave/delta/count) on step 9340000
Bond:   1   1         1.52385e-06     6906
Angle:  1   109.47    9.49875e-05     3453
   9340000   133.27899     -1616.57        0             -1348.766      -4.6665513    
SHAKE stats (type/ave/delta/count) on step 9350000
Bond:   1   1         1.31518e-06     6906
Angle:  1   109.47    0.0001121       3453
   9350000   131.5258      -1608.1438      0             -1343.8625     -10.706388    
SHAKE stats (type/ave/delta/count) on step 9360000
Bond:   1   1         1.1855e-06      6906
Angle:  1   109.47    0.000101106     3453
   9360000   134.25642     -1612.5161      0             -1342.7481     -26.384337    
SHAKE stats (type/ave/delta/count) on step 9370000
Bond:   1   1         1.54329e-06     6906
Angle:  1   109.47    0.000102111     3453
   9370000   131.57922     -1615.3905      0             -1351.0019      0.9016772    
SHAKE stats (type/ave/delta/count) on step 9380000
Bond:   1   1         1.27651e-06     6906
Angle:  1   109.47    9.166e-05       3453
   9380000   133.03968     -1616.3401      0             -1349.017      -9.0413402    
SHAKE stats (type/ave/delta/count) on step 9390000
Bond:   1   1         1.30993e-06     6906
Angle:  1   109.47    0.000103165     3453
   9390000   132.48859     -1610.8618      0             -1344.646      -10.274849    
SHAKE stats (type/ave/delta/count) on step 9400000
Bond:   1   1         1.2331e-06      6906
Angle:  1   109.47    0.000103293     3453
   9400000   134.92358     -1610.7774      0             -1339.6689     -22.633683    
SHAKE stats (type/ave/delta/count) on step 9410000
Bond:   1   1         1.11956e-06     6906
Angle:  1   109.47    9.73233e-05     3453
   9410000   134.12663     -1614.7221      0             -1345.2149     -7.6421761    
SHAKE stats (type/ave/delta/count) on step 9420000
Bond:   1   1         1.22626e-06     6906
Angle:  1   109.47    8.46531e-05     3453
   9420000   133.78772     -1610.9059      0             -1342.0797     -3.207333     
SHAKE stats (type/ave/delta/count) on step 9430000
Bond:   1   1         1.307e-06       6906
Angle:  1   109.47    0.00010051      3453
   9430000   134.44044     -1613.25        0             -1343.1122     -8.8392789    
SHAKE stats (type/ave/delta/count) on step 9440000
Bond:   1   1         1.17316e-06     6906
Angle:  1   109.47    9.24035e-05     3453
   9440000   132.89674     -1613.7132      0             -1346.6773     -6.8663098    
SHAKE stats (type/ave/delta/count) on step 9450000
Bond:   1   1         1.26905e-06     6906
Angle:  1   109.47    0.000105585     3453
   9450000   133.22334     -1616.0206      0             -1348.3284      2.9378728    
SHAKE stats (type/ave/delta/count) on step 9460000
Bond:   1   1         1.37376e-06     6906
Angle:  1   109.47    9.58214e-05     3453
   9460000   133.5357      -1609.2938      0             -1340.974      -8.2538604    
SHAKE stats (type/ave/delta/count) on step 9470000
Bond:   1   1         1.40652e-06     6906
Angle:  1   109.47    9.31869e-05     3453
   9470000   134.21952     -1607.7202      0             -1338.0263     -3.2651516    
SHAKE stats (type/ave/delta/count) on step 9480000
Bond:   1   1         1.22772e-06     6906
Angle:  1   109.47    9.8148e-05      3453
   9480000   133.28436     -1608.2687      0             -1340.4539     -4.6851539    
SHAKE stats (type/ave/delta/count) on step 9490000
Bond:   1   1         1.35121e-06     6906
Angle:  1   109.47    0.000100003     3453
   9490000   135.75919     -1612.0947      0             -1339.3071     -4.998436     
SHAKE stats (type/ave/delta/count) on step 9500000
Bond:   1   1         1.63614e-06     6906
Angle:  1   109.47    0.000106331     3453
   9500000   132.97079     -1608.775       0             -1341.5903     -11.47495     
SHAKE stats (type/ave/delta/count) on step 9510000
Bond:   1   1         1.28129e-06     6906
Angle:  1   109.47    0.000104671     3453
   9510000   134.54696     -1620.2728      0             -1349.921      -8.3886861    
SHAKE stats (type/ave/delta/count) on step 9520000
Bond:   1   1         1.65985e-06     6906
Angle:  1   109.47    0.000108719     3453
   9520000   133.76842     -1615.4307      0             -1346.6433     -18.036713    
SHAKE stats (type/ave/delta/count) on step 9530000
Bond:   1   1         1.56264e-06     6906
Angle:  1   109.47    0.000110927     3453
   9530000   134.82956     -1615.543       0             -1344.6233      3.2129468    
SHAKE stats (type/ave/delta/count) on step 9540000
Bond:   1   1         1.14952e-06     6906
Angle:  1   109.47    9.36882e-05     3453
   9540000   136.14339     -1605.6444      0             -1332.0848     -2.9757523    
SHAKE stats (type/ave/delta/count) on step 9550000
Bond:   1   1         1.21405e-06     6906
Angle:  1   109.47    0.000104885     3453
   9550000   135.88275     -1605.9403      0             -1332.9045      0.18526311   
SHAKE stats (type/ave/delta/count) on step 9560000
Bond:   1   1         1.32828e-06     6906
Angle:  1   109.47    9.12283e-05     3453
   9560000   134.68709     -1619.7731      0             -1349.1397     -1.3215187    
SHAKE stats (type/ave/delta/count) on step 9570000
Bond:   1   1         1.28078e-06     6906
Angle:  1   109.47    8.95718e-05     3453
   9570000   133.13558     -1607.8833      0             -1340.3675     -16.585552    
SHAKE stats (type/ave/delta/count) on step 9580000
Bond:   1   1         1.15044e-06     6906
Angle:  1   109.47    9.42986e-05     3453
   9580000   131.02561     -1618.6959      0             -1355.4197     -8.6671507    
SHAKE stats (type/ave/delta/count) on step 9590000
Bond:   1   1         1.61136e-06     6906
Angle:  1   109.47    0.000124377     3453
   9590000   132.01346     -1603.2261      0             -1337.965      -9.6926487    
SHAKE stats (type/ave/delta/count) on step 9600000
Bond:   1   1         1.31654e-06     6906
Angle:  1   109.47    0.000107778     3453
   9600000   135.27806     -1617.6596      0             -1345.8387     -9.7445951    
SHAKE stats (type/ave/delta/count) on step 9610000
Bond:   1   1         1.33649e-06     6906
Angle:  1   109.47    9.69611e-05     3453
   9610000   136.12288     -1612.7681      0             -1339.2497     -4.2688766    
SHAKE stats (type/ave/delta/count) on step 9620000
Bond:   1   1         1.23696e-06     6906
Angle:  1   109.47    8.84477e-05     3453
   9620000   132.77088     -1620.1019      0             -1353.3189     -6.1496304    
SHAKE stats (type/ave/delta/count) on step 9630000
Bond:   1   1         1.42784e-06     6906
Angle:  1   109.47    0.000100929     3453
   9630000   132.29465     -1613.7421      0             -1347.916      -0.53298294   
SHAKE stats (type/ave/delta/count) on step 9640000
Bond:   1   1         1.09922e-06     6906
Angle:  1   109.47    9.77794e-05     3453
   9640000   131.08093     -1606.3187      0             -1342.9314     -21.717892    
SHAKE stats (type/ave/delta/count) on step 9650000
Bond:   1   1         1.7597e-06      6906
Angle:  1   109.47    0.000115604     3453
   9650000   130.10666     -1613.5611      0             -1352.1314     -5.2106708    
SHAKE stats (type/ave/delta/count) on step 9660000
Bond:   1   1         1.32949e-06     6906
Angle:  1   109.47    9.33911e-05     3453
   9660000   134.03957     -1622.8443      0             -1353.5121     -10.462598    
SHAKE stats (type/ave/delta/count) on step 9670000
Bond:   1   1         1.22465e-06     6906
Angle:  1   109.47    9.71997e-05     3453
   9670000   134.25891     -1614.1296      0             -1344.3566     -4.742337     
SHAKE stats (type/ave/delta/count) on step 9680000
Bond:   1   1         1.18673e-06     6906
Angle:  1   109.47    9.69192e-05     3453
   9680000   132.94381     -1616.7754      0             -1349.6449     -11.379415    
SHAKE stats (type/ave/delta/count) on step 9690000
Bond:   1   1         1.37319e-06     6906
Angle:  1   109.47    0.000101203     3453
   9690000   132.56687     -1609.6264      0             -1343.2533     -5.0522152    
SHAKE stats (type/ave/delta/count) on step 9700000
Bond:   1   1         1.31676e-06     6906
Angle:  1   109.47    9.61606e-05     3453
   9700000   132.56089     -1616.0169      0             -1349.6558     -13.081869    
SHAKE stats (type/ave/delta/count) on step 9710000
Bond:   1   1         1.09625e-06     6906
Angle:  1   109.47    9.25763e-05     3453
   9710000   133.59873     -1609.1252      0             -1340.6787     -9.499564     
SHAKE stats (type/ave/delta/count) on step 9720000
Bond:   1   1         1.0778e-06      6906
Angle:  1   109.47    9.72341e-05     3453
   9720000   132.8033      -1615.6839      0             -1348.8357     -4.0120204    
SHAKE stats (type/ave/delta/count) on step 9730000
Bond:   1   1         1.14507e-06     6906
Angle:  1   109.47    9.8011e-05      3453
   9730000   133.76004     -1608.1298      0             -1339.3592     -8.4621584    
SHAKE stats (type/ave/delta/count) on step 9740000
Bond:   1   1         1.66732e-06     6906
Angle:  1   109.47    0.000100121     3453
   9740000   133.10044     -1612.6917      0             -1345.2464     -16.378296    
SHAKE stats (type/ave/delta/count) on step 9750000
Bond:   1   1         1.24561e-06     6906
Angle:  1   109.47    0.000103262     3453
   9750000   133.12105     -1611.2446      0             -1343.7579     -6.290254     
SHAKE stats (type/ave/delta/count) on step 9760000
Bond:   1   1         1.41216e-06     6906
Angle:  1   109.47    8.91963e-05     3453
   9760000   134.78872     -1613.8739      0             -1343.0363     -9.9815409    
SHAKE stats (type/ave/delta/count) on step 9770000
Bond:   1   1         1.29333e-06     6906
Angle:  1   109.47    0.000109024     3453
   9770000   133.2634      -1606.4994      0             -1338.7267     -6.175759     
SHAKE stats (type/ave/delta/count) on step 9780000
Bond:   1   1         1.16559e-06     6906
Angle:  1   109.47    9.77873e-05     3453
   9780000   133.46769     -1619.0619      0             -1350.8788      1.9136341    
SHAKE stats (type/ave/delta/count) on step 9790000
Bond:   1   1         1.24807e-06     6906
Angle:  1   109.47    9.5883e-05      3453
   9790000   133.19572     -1614.5672      0             -1346.9305     -4.4714229    
SHAKE stats (type/ave/delta/count) on step 9800000
Bond:   1   1         1.2071e-06      6906
Angle:  1   109.47    9.42724e-05     3453
   9800000   130.99659     -1609.6608      0             -1346.4429     -7.7421081    
SHAKE stats (type/ave/delta/count) on step 9810000
Bond:   1   1         1.56294e-06     6906
Angle:  1   109.47    0.000131699     3453
   9810000   133.66844     -1613.2754      0             -1344.6888      1.0821981    
SHAKE stats (type/ave/delta/count) on step 9820000
Bond:   1   1         1.39031e-06     6906
Angle:  1   109.47    0.000102362     3453
   9820000   133.04074     -1611.1019      0             -1343.7766     -19.566681    
SHAKE stats (type/ave/delta/count) on step 9830000
Bond:   1   1         1.30556e-06     6906
Angle:  1   109.47    0.000111539     3453
   9830000   131.38435     -1612.2263      0             -1348.2293     -12.07985     
SHAKE stats (type/ave/delta/count) on step 9840000
Bond:   1   1         1.43326e-06     6906
Angle:  1   109.47    9.75498e-05     3453
   9840000   134.46712     -1601.6325      0             -1331.4411     -16.427048    
SHAKE stats (type/ave/delta/count) on step 9850000
Bond:   1   1         1.21632e-06     6906
Angle:  1   109.47    0.000103139     3453
   9850000   133.2823      -1609.3558      0             -1341.5452     -17.887006    
SHAKE stats (type/ave/delta/count) on step 9860000
Bond:   1   1         1.16782e-06     6906
Angle:  1   109.47    9.0344e-05      3453
   9860000   133.22842     -1606.5447      0             -1338.8423     -4.639137     
SHAKE stats (type/ave/delta/count) on step 9870000
Bond:   1   1         1.16836e-06     6906
Angle:  1   109.47    0.000119922     3453
   9870000   133.03349     -1608.5805      0             -1341.2698      1.7451896    
SHAKE stats (type/ave/delta/count) on step 9880000
Bond:   1   1         1.30679e-06     6906
Angle:  1   109.47    9.00662e-05     3453
   9880000   131.68461     -1602.8175      0             -1338.2172     -11.144246    
SHAKE stats (type/ave/delta/count) on step 9890000
Bond:   1   1         1.26604e-06     6906
Angle:  1   109.47    9.70182e-05     3453
   9890000   132.89564     -1613.6907      0             -1346.6569     -11.479308    
SHAKE stats (type/ave/delta/count) on step 9900000
Bond:   1   1         1.2899e-06      6906
Angle:  1   109.47    0.00011489      3453
   9900000   131.34958     -1613.2963      0             -1349.3692     -21.725741    
SHAKE stats (type/ave/delta/count) on step 9910000
Bond:   1   1         1.19685e-06     6906
Angle:  1   109.47    9.9189e-05      3453
   9910000   133.07176     -1609.2535      0             -1341.8659     -14.874381    
SHAKE stats (type/ave/delta/count) on step 9920000
Bond:   1   1         1.18022e-06     6906
Angle:  1   109.47    9.42919e-05     3453
   9920000   131.48456     -1611.2223      0             -1347.0239     -5.8814224    
SHAKE stats (type/ave/delta/count) on step 9930000
Bond:   1   1         1.17648e-06     6906
Angle:  1   109.47    0.000100995     3453
   9930000   130.32597     -1617.4949      0             -1355.6245     -4.9968633    
SHAKE stats (type/ave/delta/count) on step 9940000
Bond:   1   1         1.31303e-06     6906
Angle:  1   109.47    9.26452e-05     3453
   9940000   133.71185     -1616.4973      0             -1347.8235     -1.340693     
SHAKE stats (type/ave/delta/count) on step 9950000
Bond:   1   1         1.26199e-06     6906
Angle:  1   109.47    9.83399e-05     3453
   9950000   133.95376     -1610.8309      0             -1341.6711     -23.69005     
SHAKE stats (type/ave/delta/count) on step 9960000
Bond:   1   1         1.47964e-06     6906
Angle:  1   109.47    0.000106545     3453
   9960000   134.97722     -1607.783       0             -1336.5667     -6.8305309    
SHAKE stats (type/ave/delta/count) on step 9970000
Bond:   1   1         1.2045e-06      6906
Angle:  1   109.47    9.02676e-05     3453
   9970000   132.99729     -1616.1805      0             -1348.9425      5.7116552    
SHAKE stats (type/ave/delta/count) on step 9980000
Bond:   1   1         1.37685e-06     6906
Angle:  1   109.47    0.000106197     3453
   9980000   131.97176     -1610.0691      0             -1344.8918      2.3020399    
SHAKE stats (type/ave/delta/count) on step 9990000
Bond:   1   1         1.18417e-06     6906
Angle:  1   109.47    9.78533e-05     3453
   9990000   132.19388     -1612.8002      0             -1347.1766     -23.402045    
SHAKE stats (type/ave/delta/count) on step 10000000
Bond:   1   1         1.37306e-06     6906
Angle:  1   109.47    0.00010271      3453
  10000000   133.14084     -1615.9066      0             -1348.3802     -6.1442466    
Loop time of 65698.1 on 640 procs for 10000000 steps with 18999 atoms

Performance: 13.151 ns/day, 1.825 hours/ns, 152.211 timesteps/s, 2.892 Matom-step/s
100.0% CPU use with 640 MPI tasks x 1 OpenMP threads

MPI task timing breakdown:
Section |  min time  |  avg time  |  max time  |%varavg| %total
---------------------------------------------------------------
Pair    | 0.98467    | 785.32     | 12102      |7256.0 |  1.20
Bond    | 0.90031    | 1.6983     | 3.576      |  40.6 |  0.00
Kspace  | 47127      | 57969      | 59335      | 837.2 | 88.24
Neigh   | 2412       | 2482.4     | 2520.7     |  69.3 |  3.78
Comm    | 39.201     | 553.74     | 2376.9     |2742.8 |  0.84
Output  | 0.38418    | 0.39702    | 0.40268    |   0.7 |  0.00
Modify  | 1957.5     | 3667.8     | 4945.9     |1067.5 |  5.58
Other   |            | 237.8      |            |       |  0.36

Nlocal:        29.6859 ave         612 max           0 min
Histogram: 550 58 3 5 3 5 2 3 2 9
Nghost:         298.28 ave        4173 max           0 min
Histogram: 451 119 24 15 15 4 4 5 1 2
Neighs:        4892.77 ave      164348 max           0 min
Histogram: 610 5 4 5 2 2 3 0 3 6

Total # of neighbors = 3131376
Ave neighs/atom = 164.81794
Ave special neighs/atom = 1.0904784
Neighbor list builds = 522471
Dangerous builds = 0

write_restart nvt_equi.restart.*
System init for write_restart ...
PPPM initialization ...
  using 12-bit tables for long-range coulomb (src/kspace.cpp:342)
  G vector (1/distance) = 0.29613742
  grid = 90 90 90
  stencil order = 5
  estimated absolute RMS force accuracy = 0.00016052161
  estimated relative force accuracy = 1.1147609e-05
  using double precision KISS FFT
  3d grid and FFT values/proc = 5184 1350
Generated 0 of 3 mixed pair_coeff terms from geometric mixing rule
write_data nvt_equi_final.lammps-data pair ij
System init for write_data ...
PPPM initialization ...
  using 12-bit tables for long-range coulomb (src/kspace.cpp:342)
  G vector (1/distance) = 0.29613742
  grid = 90 90 90
  stencil order = 5
  estimated absolute RMS force accuracy = 0.00016052161
  estimated relative force accuracy = 1.1147609e-05
  using double precision KISS FFT
  3d grid and FFT values/proc = 5184 1350
Generated 0 of 3 mixed pair_coeff terms from geometric mixing rule

Total wall time: 18:15:49
