LAMMPS data file via write_data, version 4 Feb 2025, timestep = 50000, units = metal

11640 atoms
3 atom types

0 154.00799999999998 xlo xhi
0 148.2 ylo yhi
0 151.07609208607428 zlo zhi

Masses

1 12.01099999691024
2 1.007999999740698
3 15.99899999588435

Atoms # full

7930 0 1 0 2.408573739788777 1.3903851004629715 46.24630891692815 1 0 0
7939 0 1 0 3.82413133867509 1.3982442489689977 46.19246599103542 1 0 0
7982 0 1 0 2.4049208691119492 3.8413380742588767 46.2618800691764 1 0 0
7991 0 1 0 3.8113377914522415 3.8476568892489915 46.18633627546037 1 0 0
7201 0 1 0 1.6561123630943522 2.6239669761221136 46.29996810314278 1 0 0
7260 0 1 0 0.23321773316758856 2.646429630629752 46.340307571065104 1 0 0
7209 0 1 0 1.6628310620247024 0.18056126102311681 46.47348769108945 1 0 0
7258 0 1 0 0.26291266701775146 0.17845426113849652 46.32387341465046 1 0 0
7940 0 1 0 4.540761140328138 2.6138630139263856 46.12522451145017 1 0 0
7941 0 1 0 5.964009122143384 2.6415646518805342 46.26921745528225 1 0 0
7950 0 1 0 6.718117376521276 1.429892042704003 46.4180980853036 1 0 0
7959 0 1 0 8.093952220251449 1.4246392506742325 46.52459143917893 1 0 0
8002 0 1 0 6.663035021108994 3.881026836981327 46.25473654822781 1 0 0
8011 0 1 0 8.108647715041187 3.9083485389450976 46.28746078581008 1 0 0
7949 0 1 0 5.973321890634254 0.22030824359988585 46.45853763251411 1 0 0
7938 0 1 0 4.542735596754406 0.19563538271720188 46.43161291693625 1 0 0
7960 0 1 0 8.829178028204984 2.63415360042662 46.37444498941887 1 0 0
7969 0 1 0 10.232151867471163 0.21268608089843305 46.61793566655502 1 0 0
7961 0 1 0 10.266618866217017 2.675383193279508 46.501810075465386 1 0 0
7970 0 1 0 10.991440252619894 1.4439271616499485 46.61646685264905 1 0 0
8022 0 1 0 10.95126379344604 3.9380086450731104 46.36192596823388 1 0 0
7958 0 1 0 8.78292803766069 0.19779366694129472 46.70477322390609 1 0 0
7979 0 1 0 12.37543594572414 1.443730492464939 46.56534409349879 1 0 0
8031 0 1 0 12.3910518516126 3.9758839416278873 46.46062465567182 1 0 0
7263 0 1 0 1.723076026308167 5.093384160514294 46.360478025982474 1 0 0
7984 0 1 0 2.4044359568174607 6.330824446695146 46.444697690719124 1 0 0
7986 0 1 0 2.366462309567009 8.827890694492371 46.55810199919986 1 0 0
7993 0 1 0 3.7695720494606952 6.334595821842654 46.438365027131155 1 0 0
7995 0 1 0 3.78513279419458 8.819925802003658 46.66632938795129 1 0 0
7265 0 1 0 1.6763447246743324 7.5717251725946335 46.55056996200781 1 0 0
7312 0 1 0 0.32153807114393484 5.089424601901708 46.24295458932975 1 0 0
7314 0 1 0 0.2387838403844457 7.5773243684184886 46.516102497022764 1 0 0
7992 0 1 0 4.491613777172623 5.086710197946471 46.32792011976807 1 0 0
7994 0 1 0 4.531762284003334 7.520119444423441 46.622600791338805 1 0 0
8003 0 1 0 5.955979327903519 5.091855877823079 46.35381010870369 1 0 0
8005 0 1 0 5.968529144343248 7.5608583267648495 46.637658542103814 1 0 0
8004 0 1 0 6.662268941249289 6.315413950342385 46.41773661295259 1 0 0
8006 0 1 0 6.648183513157111 8.777395652439385 46.74800504226616 1 0 0
8013 0 1 0 8.104838192519823 6.386342972513456 46.45874534213278 1 0 0
8015 0 1 0 8.112670015434968 8.83204125785675 46.75823677768315 1 0 0
8014 0 1 0 8.807355594600509 7.641189852900834 46.5696502506027 1 0 0
8012 0 1 0 8.808125259944795 5.139509131423199 46.413538111111365 1 0 0
8023 0 1 0 10.250440957386893 5.1793403263746685 46.35096619369775 1 0 0
8025 0 1 0 10.248244935092945 7.626394517046807 46.54369311421745 1 0 0
8026 0 1 0 10.950002645357978 8.867622478620982 46.70399434913662 1 0 0
8024 0 1 0 10.978299994301988 6.3905850459505595 46.46089359472998 1 0 0
8033 0 1 0 12.397327901184903 6.376661172662946 46.54583906605897 1 0 0
8035 0 1 0 12.408092844166326 8.827008091925737 46.64380826252926 1 0 0
7988 0 1 0 2.3770568876642595 11.252506985811753 46.65260053862547 1 0 0
7267 0 1 0 1.6710290319475851 10.043543513812747 46.50545368708608 1 0 0
7990 0 1 0 2.4164188961430106 13.73691396113548 46.60425038346701 1 0 0
7997 0 1 0 3.7944948392156443 11.265601433199999 46.77252979996986 1 0 0
7999 0 1 0 3.827904532532393 13.680645324113508 46.76727820581611 1 0 0
7269 0 1 0 1.6471776288083964 12.504735893483607 46.518706685861154 1 0 0
7316 0 1 0 0.2245345462668866 10.082495988587244 46.47775033601617 1 0 0
7318 0 1 0 0.2596666179581258 12.53873152761805 46.41043122174914 1 0 0
7996 0 1 0 4.477078041352083 10.047358516824714 46.75411429348345 1 0 0
7998 0 1 0 4.538113455242545 12.49506178256636 46.83988179855414 1 0 0
8007 0 1 0 5.9242986579045995 10.07507546944745 46.836174282625834 1 0 0
8009 0 1 0 5.966297445774657 12.546907947132004 46.818740117732645 1 0 0
8008 0 1 0 6.650978152381786 11.30862079208147 46.81715285125315 1 0 0
8010 0 1 0 6.6986536619244665 13.77191140340074 46.8331411978753 1 0 0
8017 0 1 0 8.10297541235571 11.289127962424521 46.84077159856141 1 0 0
8019 0 1 0 8.150962650608763 13.74005153872512 46.90192283562574 1 0 0
8016 0 1 0 8.802106966624644 10.098611144912834 46.75879494417699 1 0 0
8018 0 1 0 8.8786981198294 12.515240167219323 46.95272761742764 1 0 0
8027 0 1 0 10.254764182950883 10.121944930612594 46.704178462257886 1 0 0
8029 0 1 0 10.270337571802282 12.513558605684047 46.88952805702435 1 0 0
8028 0 1 0 10.921827930134357 11.289445277041464 46.85681708789758 1 0 0
8030 0 1 0 10.968403289944128 13.77006387469101 46.98126753160857 1 0 0
8037 0 1 0 12.394318689430166 11.294921951041653 46.90365666107712 1 0 0
8051 0 1 0 3.806112936160152 16.203867781111704 46.821406771718394 1 0 0
7261 0 1 0 1.7604705107271972 14.990765811784152 46.50207938153488 1 0 0
8042 0 1 0 2.369472660323648 16.23188931168205 46.73058880520484 1 0 0
7323 0 1 0 1.68708477480941 17.452851839397237 46.77242512315237 1 0 0
7372 0 1 0 0.267021468313923 17.50561593461102 46.71422361264206 1 0 0
7320 0 1 0 0.33297780834758534 14.988437552480205 46.41978467231051 1 0 0
8052 0 1 0 4.556569178422288 17.40148832818146 46.943240668640975 1 0 0
8062 0 1 0 6.671598191772068 16.210733482529186 46.81415037990681 1 0 0
8071 0 1 0 8.059413293210115 16.201409087292177 46.954210849731076 1 0 0
8000 0 1 0 4.493741737366739 14.95186543790829 46.79840549858684 1 0 0
8001 0 1 0 5.962767668422785 14.996768213511096 46.812983903166554 1 0 0
8063 0 1 0 5.986433093356801 17.45439461725655 46.97370566538938 1 0 0
8082 0 1 0 10.943912953478398 16.230887101917997 47.19868268982408 1 0 0
8021 0 1 0 10.240658223585877 14.995813808256596 47.04710886861326 1 0 0
8020 0 1 0 8.830121053267478 15.013087770750069 46.97380914228684 1 0 0
8072 0 1 0 8.774572378578819 17.438539276067633 47.122429848099756 1 0 0
8083 0 1 0 10.189080858669556 17.46298239022841 47.205648787542216 1 0 0
8091 0 1 0 12.348693470428437 16.207485229548524 47.2331028421038 1 0 0
8039 0 1 0 12.39050950927743 13.756783379278108 47.0667780511118 1 0 0
7327 0 1 0 1.6808210898623754 22.39255988462819 47.096500970878985 1 0 0
8055 0 1 0 3.793064806346013 21.115877010074563 47.2525050594836 1 0 0
8046 0 1 0 2.357283943527144 21.13812898260826 47.13224968062508 1 0 0
7325 0 1 0 1.6735058708321575 19.91672969247608 47.02205629871336 1 0 0
7374 0 1 0 0.24719632773076486 19.923987784578834 46.908974471021885 1 0 0
7376 0 1 0 0.24496002965986272 22.368971845925397 46.93651641089777 1 0 0
8053 0 1 0 3.859971709756533 18.682734502953913 47.064723089620095 1 0 0
8044 0 1 0 2.4124026239094496 18.623561350645243 47.028142387344396 1 0 0
8073 0 1 0 8.117557165431387 18.670324910333274 47.006152550318674 1 0 0
8056 0 1 0 4.512739840802477 22.337584790884385 47.28636121844127 1 0 0
8054 0 1 0 4.5314555221319806 19.89532030849241 47.21857230796934 1 0 0
8067 0 1 0 5.9654447835136555 22.440247357110007 47.248012123804834 1 0 0
8075 0 1 0 8.093719945424464 21.15631462508781 47.162653695705345 1 0 0
8066 0 1 0 6.672863476267317 21.1778320456483 47.13927535650259 1 0 0
8074 0 1 0 8.79180142988346 19.898964224613515 47.08985661611563 1 0 0
8076 0 1 0 8.830750186416665 22.388670616841722 47.25294012626646 1 0 0
8087 0 1 0 10.221699523134665 22.412965374595405 47.2098447441158 1 0 0
8085 0 1 0 10.241581579869026 19.948441821864197 47.14010170280903 1 0 0
8086 0 1 0 10.949228979699074 21.22362809706289 47.22941966736404 1 0 0
8095 0 1 0 12.34212290629792 21.230734305162354 47.24131711363884 1 0 0
8084 0 1 0 10.93251604069786 18.718241067645202 47.149524464419 1 0 0
8093 0 1 0 12.36672652457073 18.684032838523894 47.28087436587709 1 0 0
8050 0 1 0 2.2905362482179714 26.11098825906339 47.130921527989386 1 0 0
7329 0 1 0 1.6695167351155709 24.887085973546615 47.08994716002742 1 0 0
8059 0 1 0 3.7750936149165817 26.107689224251576 47.212164363762525 1 0 0
8057 0 1 0 3.780221930122906 23.58364047012897 47.30631988879515 1 0 0
8048 0 1 0 2.343788931051516 23.625348606389295 47.19216721601358 1 0 0
7321 0 1 0 1.5836287546188776 27.35667029065953 47.06611835870042 1 0 0
7380 0 1 0 0.1176646196353159 27.335682708219277 46.8980130468143 1 0 0
7378 0 1 0 0.19883597342277515 24.863557949087276 46.95876634070974 1 0 0
8058 0 1 0 4.518595115341479 24.84894043621361 47.29388198343449 1 0 0
8060 0 1 0 4.424370269985491 27.327582021936383 47.09707420993779 1 0 0
8077 0 1 0 8.111208968633779 23.666366390339682 47.32002145023551 1 0 0
8068 0 1 0 6.696930079799433 23.643609048035895 47.309149307523185 1 0 0
8069 0 1 0 5.921733308348516 24.897363631729345 47.32038890880757 1 0 0
8070 0 1 0 6.639717912574173 26.169850511769297 47.363257257780724 1 0 0
8061 0 1 0 5.914018598103198 27.40747190277615 47.173042500171384 1 0 0
8079 0 1 0 8.062851273493347 26.181482082736167 47.36206908790835 1 0 0
8078 0 1 0 8.819531793164394 24.912151160490634 47.29815705937872 1 0 0
8080 0 1 0 8.734573330163972 27.379467453079478 47.27444855179502 1 0 0
8097 0 1 0 12.370722146488129 23.68699547059915 46.99505614653324 1 0 0
8088 0 1 0 10.956205081647418 23.657250202894346 47.084765709288824 1 0 0
8089 0 1 0 10.241904426803151 24.884529723315765 47.07445349180937 1 0 0
8081 0 1 0 10.188574103882683 27.37250701236825 47.197407244756874 1 0 0
8090 0 1 0 10.945739205041681 26.11188657318036 46.95392905192116 1 0 0
8099 0 1 0 12.343893938652373 26.123062544032084 46.785788264442054 1 0 0
8111 0 1 0 3.739094935063622 28.579127167243282 47.0522839249776 1 0 0
8102 0 1 0 2.3400216671774063 28.577615332277166 47.10410826014021 1 0 0
7383 0 1 0 1.6302876741462735 29.841010885795097 47.058090270626316 1 0 0
8113 0 1 0 3.7736429085622785 31.10506891310783 47.00996400270396 1 0 0
7385 0 1 0 1.6716560490534904 32.30490787313403 46.780101213796065 1 0 0
8104 0 1 0 2.3667917165093866 31.04702767535821 46.986798161239314 1 0 0
7434 0 1 0 0.21933274209400133 32.35017913635176 46.804756160182436 1 0 0
7432 0 1 0 0.1883535153485621 29.844408907181155 46.97557039792932 1 0 0
8112 0 1 0 4.459170453655039 29.843554499789967 47.02587154917508 1 0 0
8125 0 1 0 5.890188041838622 32.289977685982734 46.87366978172343 1 0 0
8122 0 1 0 6.561558544731054 28.662615300131236 47.11243044604544 1 0 0
8131 0 1 0 8.020989718103047 28.58890252521519 47.19270767835011 1 0 0
8123 0 1 0 5.894159926186807 29.885677855575363 47.10309437268617 1 0 0
8124 0 1 0 6.5917977381359245 31.07595548518486 47.025906885653086 1 0 0
8133 0 1 0 8.022483101375808 31.088764605406592 47.024836084305534 1 0 0
8132 0 1 0 8.740977362762516 29.771289538488567 47.118752773058496 1 0 0
8134 0 1 0 8.75024321633689 32.30664931552315 46.95389412881976 1 0 0
8143 0 1 0 10.176663672407095 29.779985451086308 47.13884769367591 1 0 0
8142 0 1 0 10.886295803888686 28.603797251958195 47.08190375545727 1 0 0
8145 0 1 0 10.174129526194218 32.288271037649004 47.005090306596585 1 0 0
8151 0 1 0 12.320095522365557 28.609077946925996 47.037955957581495 1 0 0
8144 0 1 0 10.895119250410474 31.049042638571922 47.06674424059844 1 0 0
8153 0 1 0 12.282970174682301 31.083569339956416 47.04740975848951 1 0 0
8117 0 1 0 3.817495260837539 36.00859430338071 46.48075588746364 1 0 0
8108 0 1 0 2.37856440747036 36.00525232794286 46.42467896937942 1 0 0
8115 0 1 0 3.804331244697161 33.55651355077466 46.745799252150924 1 0 0
8106 0 1 0 2.38974999402817 33.531861744809355 46.72332738197238 1 0 0
7387 0 1 0 1.639003721742831 34.783872983595785 46.545494472663925 1 0 0
7436 0 1 0 0.19729908979600197 34.762247134232624 46.47601836111277 1 0 0
8114 0 1 0 4.4837137204793445 32.296043882610405 46.81515477357482 1 0 0
8116 0 1 0 4.486910826154961 34.78662693952614 46.61529827407812 1 0 0
8127 0 1 0 5.919124003077813 34.75579937729187 46.63637161242355 1 0 0
8126 0 1 0 6.675636480862031 33.52273212570285 46.758925014228936 1 0 0
8135 0 1 0 8.048361525460583 33.57496702361556 46.998361057042025 1 0 0
8137 0 1 0 8.043133844583645 36.01376919744714 46.91668709898054 1 0 0
8128 0 1 0 6.603107024434117 35.994166868281376 46.7291621957811 1 0 0
8146 0 1 0 10.882277556856792 33.53163874802383 47.02590058908603 1 0 0
8155 0 1 0 12.324058990398163 33.53087345127013 47.13887679504161 1 0 0
8157 0 1 0 12.360009643905439 36.01205141474585 47.12929068983596 1 0 0
8136 0 1 0 8.769095546276958 34.77056465277328 46.989083884327506 1 0 0
8147 0 1 0 10.186047857563466 34.79505208403627 47.06365354500719 1 0 0
8148 0 1 0 10.955788955235143 36.050753913620355 47.03803824866602 1 0 0
8064 0 1 0 6.675192812037026 18.70195368711649 46.981298167413954 1 0 0
8065 0 1 0 5.934879808011503 19.91884515334644 47.127740751834004 1 0 0
8171 0 1 0 3.794219414081815 41.00047186481847 46.29643767364821 1 0 0
8162 0 1 0 2.3859368284993168 40.94149123503013 46.288263228874776 1 0 0
8119 0 1 0 3.7482767803850847 38.5072758173564 46.41371356211893 1 0 0
8110 0 1 0 2.3708714392610752 38.501956222965184 46.326474871626196 1 0 0
7381 0 1 0 1.6512678152400098 39.71265659186092 46.3273183478438 1 0 0
7438 0 1 0 0.2556911171098041 37.196335608864814 46.2902238315497 1 0 0
7389 0 1 0 1.6704252567419577 37.19573446215296 46.296811387072864 1 0 0
7440 0 1 0 0.22228662287158218 39.6622420123767 46.32889876161302 1 0 0
8120 0 1 0 4.480453797076453 39.73248362112108 46.44337336357485 1 0 0
8118 0 1 0 4.465338390527409 37.24851691615624 46.551947883116554 1 0 0
8182 0 1 0 6.661085908208225 40.95614665577155 46.59259925971413 1 0 0
8130 0 1 0 6.601551258273175 38.5046764020073 46.71845973837478 1 0 0
8191 0 1 0 8.023336123057089 40.9505792487752 46.86345816269496 1 0 0
8121 0 1 0 5.892752591336723 39.734312336918215 46.60216729459531 1 0 0
8139 0 1 0 8.025277879879171 38.51350300522725 46.964254615569345 1 0 0
8129 0 1 0 5.8983330932951015 37.251525224135754 46.68112037991233 1 0 0
8138 0 1 0 8.76112750833796 37.269614407258466 46.92140600504362 1 0 0
8140 0 1 0 8.767738939023397 39.725160478471075 46.905493810250874 1 0 0
8150 0 1 0 10.963135245114227 38.57290777402321 47.06402950404624 1 0 0
8202 0 1 0 10.977063381055814 40.96996209808894 46.93690194086971 1 0 0
8211 0 1 0 12.42240292247023 41.035776386700206 47.0526402009494 1 0 0
8141 0 1 0 10.259986963996061 39.76897657665854 46.98417946304046 1 0 0
8159 0 1 0 12.377531683309545 38.536583466756355 47.30543192968915 1 0 0
8149 0 1 0 10.208725411149434 37.324284976328485 47.09954718592788 1 0 0
7443 0 1 0 1.6893389370156286 42.195634426516385 46.14641641552179 1 0 0
7445 0 1 0 1.6499489518413657 44.671002519229525 45.91642018269904 1 0 0
8173 0 1 0 3.8071755401477114 43.46097352833019 46.183980808478225 1 0 0
8175 0 1 0 3.7824159482937634 45.87751522447217 46.04646862003243 1 0 0
8166 0 1 0 2.4173029685286136 45.87741191504523 45.8828091337083 1 0 0
8164 0 1 0 2.343917797132764 43.425774746949955 46.02281980399725 1 0 0
7494 0 1 0 0.20226009092236588 44.67303874126951 45.90003092230122 1 0 0
7492 0 1 0 0.2811173042388845 42.14388405275067 46.16345177505641 1 0 0
8174 0 1 0 4.560376078584142 44.65060926703796 46.13517318892549 1 0 0
8172 0 1 0 4.5255314245259735 42.25154898799316 46.39716454791903 1 0 0
8183 0 1 0 5.943404587013239 42.21014772988261 46.55221110000268 1 0 0
8184 0 1 0 6.696913643451253 43.42877154678389 46.59205785110732 1 0 0
8195 0 1 0 8.087608776941346 45.89475861208196 46.42138785073383 1 0 0
8186 0 1 0 6.643972330242119 45.8578578864504 46.41318394503861 1 0 0
8185 0 1 0 5.963315415022405 44.621923916572314 46.451357198950554 1 0 0
8193 0 1 0 8.089695054606306 43.40917312276704 46.71323771955806 1 0 0
8192 0 1 0 8.816450533086275 42.17382806408603 46.76462379438139 1 0 0
8194 0 1 0 8.806425241369169 44.64756875019927 46.6242072690841 1 0 0
8203 0 1 0 10.260350217752677 42.188561927158574 46.77891355643133 1 0 0
8213 0 1 0 12.380155376633253 43.45458310938283 46.843431149909385 1 0 0
8206 0 1 0 10.93864367142256 45.92475049235365 46.58546265154741 1 0 0
8205 0 1 0 10.235471787264473 44.670031674490396 46.69990190779855 1 0 0
8204 0 1 0 10.948118289518344 43.45747459287455 46.787821331112816 1 0 0
8215 0 1 0 12.348394705467637 45.896869633335534 46.71187080471102 1 0 0
8179 0 1 0 3.834489230967909 50.82089187515079 45.82726510806693 1 0 0
8177 0 1 0 3.834670095849143 48.364546678802405 45.98658244819898 1 0 0
8168 0 1 0 2.395318947442717 48.37943178813359 45.91141682509901 1 0 0
7447 0 1 0 1.6946025680323844 47.16566951692205 45.884868484458835 1 0 0
8170 0 1 0 2.4158888195858204 50.86232774657379 45.917374163790925 1 0 0
7449 0 1 0 1.688900576804215 49.60942694626429 45.945625199359 1 0 0
7498 0 1 0 0.26780195041077565 49.592955770442295 45.93788335886022 1 0 0
7496 0 1 0 0.2569209086247186 47.15402493140736 45.71709913519083 1 0 0
8176 0 1 0 4.522223342299506 47.08204395529985 46.018745933518375 1 0 0
8178 0 1 0 4.565698837582231 49.58263227485426 45.8514899922797 1 0 0
8189 0 1 0 5.998525389634207 49.524111409462314 45.883275142950275 1 0 0
8188 0 1 0 6.680833503520177 48.27769660822143 46.06374707593228 1 0 0
8187 0 1 0 5.9497815098901405 47.06346712706256 46.20957134567141 1 0 0
8190 0 1 0 6.714118793157731 50.797654988532805 45.9204975228059 1 0 0
8199 0 1 0 8.096923833503038 50.86532430916621 46.05794548796184 1 0 0
8197 0 1 0 8.113262930637205 48.41604339400307 46.16678828199731 1 0 0
8196 0 1 0 8.80507130536344 47.156825621964046 46.32045221181237 1 0 0
8198 0 1 0 8.849718328757742 49.64379700992527 46.11560142899432 1 0 0
8210 0 1 0 10.987710915172377 50.81448488904525 46.053386405460756 1 0 0
8207 0 1 0 10.222488076722197 47.1579466739014 46.414617127114404 1 0 0
8219 0 1 0 12.383257770137927 50.80643230512211 46.15698231759493 1 0 0
8208 0 1 0 10.964218712847945 48.37570496095868 46.33414087503218 1 0 0
8217 0 1 0 12.412323156787412 48.341074843952555 46.39786496794786 1 0 0
8209 0 1 0 10.275651573287508 49.56958822628788 46.13996706264996 1 0 0
7503 0 1 0 1.6247248236708247 54.596614166451175 45.930968267381054 1 0 0
8222 0 1 0 2.411619896974702 53.29169645654538 45.98884148473243 1 0 0
7441 0 1 0 1.6971824192947196 52.08292806393107 45.99475735455474 1 0 0
8231 0 1 0 3.8185853712288393 53.3059555748873 45.91553203115942 1 0 0
7552 0 1 0 0.24823935997177393 54.63179047382863 45.912738386890986 1 0 0
7500 0 1 0 0.2717083266625777 52.08887691566052 45.981037554064095 1 0 0
8180 0 1 0 4.572659763051439 52.07785851748101 45.83648353630479 1 0 0
8181 0 1 0 5.983775420419912 52.03451393570596 45.86557839115555 1 0 0
8243 0 1 0 5.965687382862359 54.540232867285816 46.088694595176236 1 0 0
8232 0 1 0 4.5539746592600565 54.64332729022685 46.06106779474764 1 0 0
8251 0 1 0 8.117254212344832 53.341342360567786 46.00333910528567 1 0 0
8242 0 1 0 6.6950355746370755 53.29503782944861 46.062410637485485 1 0 0
8262 0 1 0 10.99843703666098 53.310349231235676 45.9049888876394 1 0 0
8200 0 1 0 8.816851183129081 52.09418466835495 46.01738120354358 1 0 0
8263 0 1 0 10.263066140091649 54.55091145008494 45.95437689847071 1 0 0
8271 0 1 0 12.351649399690862 53.31063452371376 45.93598503287315 1 0 0
8252 0 1 0 8.805094604265655 54.60700961453995 46.089090823733756 1 0 0
8201 0 1 0 10.240528691354942 52.07697916674076 46.0300878776881 1 0 0
7505 0 1 0 1.6296856964054742 57.03653180489968 46.0058113670357 1 0 0
8226 0 1 0 2.3717919560700724 58.253622063422135 46.17612881021389 1 0 0
7507 0 1 0 1.6242577183648916 59.48177331674361 46.044636819265584 1 0 0
8235 0 1 0 3.7523060290212427 58.2975435014577 46.15786210738597 1 0 0
8224 0 1 0 2.3486856548116952 55.79540634279682 46.11766557106101 1 0 0
8233 0 1 0 3.7585770931000986 55.7861358101885 46.07825131295654 1 0 0
7554 0 1 0 0.2075291699035453 57.06404479795419 45.8955560012967 1 0 0
7556 0 1 0 0.21824667030202158 59.53254882807198 45.84912531471923 1 0 0
8236 0 1 0 4.4860717905910485 59.52180553102401 46.130824841985856 1 0 0
8234 0 1 0 4.48699597555638 57.01728044306094 46.116838661116674 1 0 0
8247 0 1 0 5.903182418051111 59.49169222302501 46.09112002461733 1 0 0
8246 0 1 0 6.655620586677386 58.2447618576638 46.0959292316015 1 0 0
8245 0 1 0 5.873033340871119 56.97085211765967 46.07008202189544 1 0 0
8255 0 1 0 8.061241764754215 58.26923389397138 45.97392154484825 1 0 0
8244 0 1 0 6.678895553818846 55.766722551733096 46.07719125788547 1 0 0
8253 0 1 0 8.100881277046588 55.817537726899936 46.11107199808208 1 0 0
8256 0 1 0 8.80610310613912 59.509200556689045 45.902241982218115 1 0 0
8254 0 1 0 8.791348330586073 57.05800711522904 45.9657293414375 1 0 0
8266 0 1 0 10.962440266242831 58.22963686829879 45.928362807413976 1 0 0
8275 0 1 0 12.350852262355941 58.18882670578619 46.11649872026666 1 0 0
8265 0 1 0 10.247256484390148 57.00910456318079 45.91683906249489 1 0 0
8267 0 1 0 10.247316773484972 59.510412650696864 45.95907747762601 1 0 0
8264 0 1 0 10.926356052733768 55.79420602824947 45.97134593418473 1 0 0
8273 0 1 0 12.354596905326254 55.73177968586912 45.98934779950947 1 0 0
8228 0 1 0 2.36447582524742 60.729372966335596 46.19761091403039 1 0 0
8237 0 1 0 3.7591774843083203 60.73389705896826 46.201744568360944 1 0 0
7509 0 1 0 1.6811288441209091 61.98860180117609 46.05766366140964 1 0 0
8239 0 1 0 3.816742993398248 63.19954753747087 46.156378177558985 1 0 0
8230 0 1 0 2.4070459790557557 63.19542775923555 46.163299453264706 1 0 0
7501 0 1 0 1.7007699061148844 64.49231552069466 46.13121656149711 1 0 0
7560 0 1 0 0.23489062510072023 64.42449039747551 46.079607990922135 1 0 0
7558 0 1 0 0.2606467178887033 61.99756629171643 45.796967141512354 1 0 0
8240 0 1 0 4.505112495628832 64.44426632089093 46.23066539474044 1 0 0
8238 0 1 0 4.495548548511018 62.0008784378296 46.14570027033453 1 0 0
8248 0 1 0 6.650733834657247 60.74890164138727 46.05856343772588 1 0 0
8257 0 1 0 8.043086665754664 60.7505554715342 46.01477296918816 1 0 0
8249 0 1 0 5.951102991268399 61.98306364948054 46.20607856350143 1 0 0
8241 0 1 0 5.9559992711474825 64.43972048870003 46.290415672695694 1 0 0
8250 0 1 0 6.6572795524300306 63.212268631925745 46.17380584869424 1 0 0
8259 0 1 0 8.126984148459135 63.24208782403551 46.12871005456924 1 0 0
8258 0 1 0 8.827068867687043 61.97863664163481 46.11218715893752 1 0 0
8260 0 1 0 8.867543060451185 64.44252647727495 46.20294562516406 1 0 0
8277 0 1 0 12.390452483800651 60.72473136455536 46.24279950948292 1 0 0
8268 0 1 0 10.976342818506522 60.74131473801783 46.18598459464214 1 0 0
8261 0 1 0 10.257498729794627 64.4627222794706 46.29472277848611 1 0 0
8279 0 1 0 12.38448729741249 63.244827368861955 46.346834024351516 1 0 0
8269 0 1 0 10.217678514043763 61.97982223688948 46.254536694508126 1 0 0
8270 0 1 0 10.94498934786928 63.19647402920527 46.36008360425036 1 0 0
7612 0 1 0 0.24794331506918818 66.93550201706317 46.094187084818294 1 0 0
7614 0 1 0 0.18128943339497103 69.36651326115954 46.00886607060103 1 0 0
7565 0 1 0 1.6286596559494373 69.41271021046667 46.156728009928635 1 0 0
8284 0 1 0 2.353584094629704 68.19962280190924 46.17335512581399 1 0 0
8293 0 1 0 3.7854347006103786 68.17237256615493 46.25352150333195 1 0 0
7563 0 1 0 1.6665417577860488 66.95576702206091 46.19556489207357 1 0 0
8282 0 1 0 2.4008486862597613 65.72506774784473 46.15914693198543 1 0 0
8291 0 1 0 3.815432124424188 65.66907996979894 46.296477919697715 1 0 0
8294 0 1 0 4.520856400412418 69.43163890481753 46.2712522862118 1 0 0
8292 0 1 0 4.513330489333644 66.96629630176776 46.35767548179523 1 0 0
8305 0 1 0 5.933707394815973 69.40669134599875 46.194698135972544 1 0 0
8302 0 1 0 6.667071777369653 65.72073869065862 46.31869269755123 1 0 0
8303 0 1 0 5.964436417103684 66.94520031650468 46.34119531355275 1 0 0
8304 0 1 0 6.6789011722738305 68.19903566904424 46.24286184366285 1 0 0
8313 0 1 0 8.091596074925818 68.13776325421878 46.21778428056741 1 0 0
8311 0 1 0 8.111854872998306 65.68261658386763 46.25799810607918 1 0 0
8314 0 1 0 8.791020386439396 69.39889317970255 46.0987968517923 1 0 0
8312 0 1 0 8.842393884075683 66.95520746598817 46.27638865564356 1 0 0
8331 0 1 0 12.441639206808052 65.73656694215444 46.30333221281379 1 0 0
8333 0 1 0 12.421647556867338 68.19519520301772 46.02689019121978 1 0 0
8325 0 1 0 10.176477709068006 69.37148503109731 46.03785692953794 1 0 0
8323 0 1 0 10.245884628899166 66.94087758485132 46.0975194459944 1 0 0
8324 0 1 0 10.944251128729555 68.16426461604144 46.06379397301128 1 0 0
8322 0 1 0 11.011677455579774 65.72971819137459 46.325924973293986 1 0 0
8288 0 1 0 2.394922926803056 73.10151017003776 45.763164776593186 1 0 0
8297 0 1 0 3.8197583359609357 73.09380903979614 45.774491840232415 1 0 0
7567 0 1 0 1.6625761411890043 71.8509501603712 45.87883409513039 1 0 0
8286 0 1 0 2.366627799970281 70.65343762635986 46.041372013538655 1 0 0
8295 0 1 0 3.819684212393856 70.6547924406184 46.09380114245305 1 0 0
7616 0 1 0 0.2269430160812177 71.85191871163119 45.9233920629301 1 0 0
8306 0 1 0 6.631738410815614 70.63243710757857 45.95825472873708 1 0 0
8296 0 1 0 4.515689251681405 71.86888987991718 45.83655859502705 1 0 0
8315 0 1 0 8.071390541653718 70.60848438271381 45.86399688482219 1 0 0
8307 0 1 0 5.957418676806705 71.90039645423387 45.81612446144106 1 0 0
8308 0 1 0 6.626475218092442 73.11689691799631 45.6150796378385 1 0 0
8317 0 1 0 8.066099523734012 73.07387493811585 45.62010283119037 1 0 0
8328 0 1 0 10.901941314830319 73.0320307888416 45.671754790610805 1 0 0
8327 0 1 0 10.214634624331461 71.80383751807139 45.68356986755219 1 0 0
8335 0 1 0 12.390004989792832 70.64719294470018 45.7947179681262 1 0 0
8337 0 1 0 12.33883836165431 73.08501361123615 45.69202000147896 1 0 0
8316 0 1 0 8.787262607091868 71.83733495808286 45.659600990003035 1 0 0
8326 0 1 0 10.898942397385484 70.55582631829199 45.86426303974159 1 0 0
8299 0 1 0 3.7845352814445237 75.50111015960327 45.7240542536996 1 0 0
8290 0 1 0 2.3852161595101244 75.53065736440213 45.75248936756519 1 0 0
8351 0 1 0 3.809418137200977 77.98828525308757 45.584478721541764 1 0 0
8342 0 1 0 2.3824773184232515 77.97143153195383 45.53493112784974 1 0 0
7561 0 1 0 1.6537333636458904 76.76872435978252 45.70729956212374 1 0 0
7569 0 1 0 1.665576246844231 74.34081362048558 45.71809985473518 1 0 0
7620 0 1 0 0.26374469397286116 76.79633389142958 45.6351558245179 1 0 0
7618 0 1 0 0.20308297366676306 74.28726969697155 45.78892722189313 1 0 0
8300 0 1 0 4.534397435862973 76.74385580580568 45.62894549246876 1 0 0
8310 0 1 0 6.712546306643076 75.55632270474649 45.58830889811887 1 0 0
8319 0 1 0 8.126488632156956 75.51730758756756 45.6234670986438 1 0 0
8371 0 1 0 8.122700626151106 77.9307809608718 45.55331656905698 1 0 0
8362 0 1 0 6.698986832090196 78.02483934918486 45.516412299211304 1 0 0
8301 0 1 0 5.964648847275779 76.8187218336044 45.516543380468 1 0 0
8309 0 1 0 5.9657073837824175 74.3498629157625 45.594470279882955 1 0 0
8298 0 1 0 4.522668151247814 74.32689018923622 45.700662647691374 1 0 0
8320 0 1 0 8.838988841524413 76.74893178003413 45.671154002537776 1 0 0
8382 0 1 0 10.962157030357377 77.97499878792412 45.546070475812705 1 0 0
8391 0 1 0 12.367314045170081 77.96198632089676 45.54482252198951 1 0 0
8321 0 1 0 10.260414525062746 76.69440360948217 45.628998861951686 1 0 0
8330 0 1 0 10.951494601034936 75.45408775219549 45.63396795213304 1 0 0
8339 0 1 0 12.348406717904169 75.49708558499516 45.6583674650217 1 0 0
8318 0 1 0 8.786709663489328 74.25019813169037 45.54994330319652 1 0 0
8329 0 1 0 10.21202275549936 74.29299933701806 45.52185263230687 1 0 0
7623 0 1 0 1.7272432077707658 79.20698716040624 45.393125830302886 1 0 0
8353 0 1 0 3.8464763443485546 80.42672459291627 45.46487555520153 1 0 0
8355 0 1 0 3.8768168971918895 82.89643157293659 45.38394415993914 1 0 0
8346 0 1 0 2.40193156939829 82.9074469666116 45.30757643606257 1 0 0
8344 0 1 0 2.4432900566195 80.46000386682947 45.39934811535901 1 0 0
7625 0 1 0 1.6968757275563955 81.68368889704679 45.33729319741159 1 0 0
7674 0 1 0 0.28537653460481527 81.65420162518402 45.134496566671515 1 0 0
7672 0 1 0 0.29028034320448437 79.23384244220486 45.307083315009585 1 0 0
8354 0 1 0 4.600900620733507 81.66007001040731 45.423829576303234 1 0 0
8352 0 1 0 4.545095430814256 79.2375320414964 45.45353361315074 1 0 0
8375 0 1 0 8.171502529889127 82.89424892861658 45.31110934571628 1 0 0
8373 0 1 0 8.104899685208867 80.4552881622371 45.34972679895309 1 0 0
8363 0 1 0 5.973116850819818 79.2421583500049 45.395724226020306 1 0 0
8366 0 1 0 6.7243911666578065 82.93123898055889 45.33533521849675 1 0 0
8365 0 1 0 6.014606706020013 81.69111782479789 45.36410243075358 1 0 0
8364 0 1 0 6.7453805826184485 80.43096172557135 45.38338459335425 1 0 0
8372 0 1 0 8.80044265780772 79.1892352465874 45.5224473983917 1 0 0
8374 0 1 0 8.860447187540592 81.69340781412191 45.2797948828532 1 0 0
8383 0 1 0 10.261228696474422 79.20012422879276 45.504202699222404 1 0 0
8395 0 1 0 12.4192300670221 82.90278387068312 45.061631420334 1 0 0
8384 0 1 0 10.988478852375248 80.40597866558363 45.29158597543304 1 0 0
8386 0 1 0 10.991760209159665 82.8718572357497 45.15666154906507 1 0 0
8393 0 1 0 12.381014420928894 80.43456582746074 45.224896560864615 1 0 0
8385 0 1 0 10.308633509707525 81.6619917150488 45.27431342059574 1 0 0
7678 0 1 0 0.2861628037506843 86.67908866417864 45.42726241926081 1 0 0
7676 0 1 0 0.3098409805709041 84.19196659075612 45.168287429776804 1 0 0
7627 0 1 0 1.7266344272628729 84.16633323829215 45.32689461088441 1 0 0
8359 0 1 0 3.8740001722381643 87.81218557236339 45.489671061701806 1 0 0
8350 0 1 0 2.399608923093306 87.90749345426299 45.469864361100065 1 0 0