LAMMPS (4 Feb 2025)
OMP_NUM_THREADS environment is not set. Defaulting to 1 thread. (src/comm.cpp:99)
  using 1 OpenMP thread(s) per MPI task
# LAMMPS script for continuing NVT simulation

atom_modify map yes
newton      on

read_restart nvt_prod.restart.1120000
Reading restart file ...
  restart file = 4 Feb 2025, LAMMPS = 4 Feb 2025
  restoring atom style full from restart
  orthogonal box = (0 0 0) to (154.008 148.19427 151.07317)
  16 by 8 by 13 MPI processor grid
  pair style symmetrix/mace stores no restart info
  11640 atoms
Finding 1-2 1-3 1-4 neighbors ...
  special bond factors lj:    0        0        0       
  special bond factors coul:  0        0        0       
     0 = max # of 1-2 neighbors
     0 = max # of 1-3 neighbors
     0 = max # of 1-4 neighbors
     1 = max # of special neighbors
  special bonds CPU = 5.659 seconds
  read_restart CPU = 5.878 seconds

pair_style  symmetrix/mace
pair_coeff  * * ../../../../00-common/models/ch2o-dens-inv_swa-1-6-8.json C H O
Loading MACE model from '../../../../00-common/models/ch2o-dens-inv_swa-1-6-8.json' ... success
  mapping LAMMPS type 1 (C) to MACE type 1
  mapping LAMMPS type 2 (H) to MACE type 0
  mapping LAMMPS type 3 (O) to MACE type 2

group graphene type 1
8640 atoms in group graphene
group H2O type 2 3
3000 atoms in group H2O

thermo 1000

######### NVT production for 80 ps #############

dump DUMP1 all atom 100 nvt_prod_14.lammpstrj
timestep 0.001
fix NVT1 H2O nvt temp 300 300 0.1
Resetting global fix info from restart file:
  fix style: nvt, fix ID: NVT1
run 80000
All restart file global fix info was re-assigned
Neighbor list info ...
  update: every = 1 steps, delay = 0 steps, check = yes
  max neighbors/atom: 2000, page size: 100000
  master list distance cutoff = 8
  ghost atom cutoff = 8
  binsize = 4, bins = 39 38 38
  1 neighbor lists, perpetual/occasional/extra = 1 0 0
  (1) pair symmetrix/mace, perpetual
      attributes: full, newton on
      pair build: full/bin
      stencil: full/bin/3d
      bin: standard
Per MPI rank memory allocation (min/avg/max) = 5.923 | 6.128 | 8.729 Mbytes
   Step          Temp          E_pair         E_mol          TotEng         Press     
   1120000   77.227298     -1810221.4      0             -1810105.2      283.58727    
   1121000   76.705478     -1810218.4      0             -1810103        296.27478    
   1122000   76.671222     -1810223.6      0             -1810108.2      287.08866    
   1123000   74.654578     -1810216.6      0             -1810104.2      268.98083    
   1124000   77.938282     -1810221.3      0             -1810104.1      280.54992    
   1125000   80.022734     -1810217.1      0             -1810096.7      290.09322    
   1126000   75.021583     -1810213.9      0             -1810101.1      274.50196    
   1127000   77.621523     -1810220        0             -1810103.2      286.80784    
   1128000   79.649148     -1810215.7      0             -1810095.9      286.39483    
   1129000   76.68183      -1810216.4      0             -1810101        296.39331    
   1130000   79.077131     -1810214.5      0             -1810095.6      274.11992    
   1131000   75.6178       -1810222.3      0             -1810108.5      289.04233    
   1132000   78.481421     -1810217.7      0             -1810099.6      275.04472    
   1133000   77.100021     -1810218.4      0             -1810102.4      267.22127    
   1134000   77.77844      -1810212.6      0             -1810095.6      284.95079    
   1135000   76.043224     -1810220.9      0             -1810106.5      293.50996    
   1136000   77.66579      -1810217.9      0             -1810101.1      275.84632    
   1137000   79.509814     -1810218.5      0             -1810098.9      296.40807    
   1138000   79.344404     -1810215.1      0             -1810095.7      274.43899    
   1139000   77.423182     -1810215.1      0             -1810098.7      296.69545    
   1140000   77.98438      -1810214.2      0             -1810096.8      281.79211    
   1141000   78.419067     -1810219.4      0             -1810101.5      281.10577    
   1142000   77.579918     -1810215.7      0             -1810099        294.31359    
   1143000   77.399357     -1810217.8      0             -1810101.3      288.11507    
   1144000   80.369273     -1810216.3      0             -1810095.4      284.05689    
   1145000   75.991453     -1810216.5      0             -1810102.2      278.09118    
   1146000   81.044579     -1810225.5      0             -1810103.6      294.49798    
   1147000   78.28893      -1810213.9      0             -1810096.1      280.8745     
   1148000   76.97382      -1810216.5      0             -1810100.7      280.65243    
   1149000   76.539137     -1810211.9      0             -1810096.7      273.98505    
   1150000   77.489934     -1810212.1      0             -1810095.5      294.7124     
   1151000   78.891764     -1810219.4      0             -1810100.7      284.9969     
   1152000   77.442362     -1810213.4      0             -1810096.9      304.31008    
   1153000   76.663111     -1810221.2      0             -1810105.9      290.72979    
   1154000   75.744773     -1810214.9      0             -1810101        287.03178    
   1155000   77.45974      -1810219.7      0             -1810103.2      292.04831    
   1156000   76.402266     -1810220.4      0             -1810105.5      287.93386    
   1157000   75.729799     -1810220.7      0             -1810106.7      275.32415    
   1158000   78.629042     -1810218.6      0             -1810100.3      282.70649    
   1159000   77.081461     -1810215.8      0             -1810099.8      284.06552    
   1160000   77.615492     -1810216.1      0             -1810099.3      278.82209    
   1161000   78.218518     -1810219.2      0             -1810101.5      275.63485    
   1162000   77.051688     -1810222.6      0             -1810106.7      286.688      
   1163000   78.185635     -1810218.6      0             -1810101        276.26662    
   1164000   76.655764     -1810220.2      0             -1810104.9      293.61497    
   1165000   77.758424     -1810217.1      0             -1810100.1      290.47272    
   1166000   77.929997     -1810213.8      0             -1810096.6      283.52368    
   1167000   77.628065     -1810213.2      0             -1810096.4      290.82744    
   1168000   74.949093     -1810217.1      0             -1810104.4      287.84732    
   1169000   76.841248     -1810213.6      0             -1810098        295.14776    
   1170000   76.408536     -1810216.5      0             -1810101.5      286.51473    
   1171000   76.798958     -1810214.5      0             -1810098.9      304.01109    
   1172000   76.879695     -1810217.7      0             -1810102        281.13339    
   1173000   76.057961     -1810220        0             -1810105.6      271.05134    
   1174000   79.214228     -1810217.6      0             -1810098.4      293.54203    
   1175000   78.425981     -1810220.4      0             -1810102.4      292.60588    
   1176000   75.907527     -1810217.8      0             -1810103.6      289.30265    
   1177000   77.36078      -1810218.5      0             -1810102.1      284.02744    
   1178000   77.471503     -1810217.2      0             -1810100.6      269.36422    
   1179000   76.229745     -1810216.6      0             -1810101.9      276.31145    
   1180000   78.46103      -1810217.5      0             -1810099.5      279.8415     
   1181000   74.942205     -1810222.8      0             -1810110        280.28173    
   1182000   77.315479     -1810214.8      0             -1810098.4      278.49079    
   1183000   77.224562     -1810217.1      0             -1810101        282.81648    
   1184000   77.899625     -1810216.7      0             -1810099.5      279.40721    
   1185000   77.276844     -1810219.3      0             -1810103        271.02238    
   1186000   76.01048      -1810219.7      0             -1810105.3      290.10728    
   1187000   78.283861     -1810214.9      0             -1810097.1      298.9516     
   1188000   77.024493     -1810222.1      0             -1810106.2      278.18737    
   1189000   76.845643     -1810216.7      0             -1810101.1      288.09745    
   1190000   77.974032     -1810215.6      0             -1810098.3      278.56722    
   1191000   76.696899     -1810219.1      0             -1810103.7      265.46088    
   1192000   75.304404     -1810222.1      0             -1810108.9      278.44428    
   1193000   75.641837     -1810218        0             -1810104.2      280.33968    
   1194000   77.557389     -1810216.8      0             -1810100.1      284.58498    
   1195000   76.586304     -1810220.8      0             -1810105.6      279.37296    
   1196000   77.423776     -1810214.7      0             -1810098.2      283.47133    
   1197000   77.941706     -1810216.4      0             -1810099.2      285.51985    
   1198000   76.715355     -1810216        0             -1810100.6      287.53706    
   1199000   76.566838     -1810213.8      0             -1810098.6      273.18079    
   1200000   77.59535      -1810217.5      0             -1810100.8      293.55534    
Loop time of 48295 on 1664 procs for 80000 steps with 11640 atoms

Performance: 0.143 ns/day, 167.691 hours/ns, 1.656 timesteps/s, 19.281 katom-step/s
100.0% CPU use with 1664 MPI tasks x 1 OpenMP threads

MPI task timing breakdown:
Section |  min time  |  avg time  |  max time  |%varavg| %total
---------------------------------------------------------------
Pair    | 0.13801    | 3157.3     | 47656      |14876.4 |  6.54
Bond    | 0.0031908  | 0.0060936  | 0.033058   |   7.2 |  0.00
Neigh   | 0.011422   | 0.089379   | 4.5261     | 109.9 |  0.00
Comm    | 0.54663    | 1168       | 24714      |11662.0 |  2.42
Output  | 0.83811    | 6.7651     | 13.044     | 138.9 |  0.01
Modify  | 63.727     | 43952      | 48277      |5388.3 | 91.01
Other   |            | 11.21      |            |       |  0.02

Nlocal:        6.99519 ave         257 max           0 min
Histogram: 1527 2 110 7 4 1 2 3 1 7
Nghost:         66.277 ave        1508 max           0 min
Histogram: 1385 104 124 14 17 9 6 2 1 2
Neighs:              0 ave           0 max           0 min
Histogram: 1664 0 0 0 0 0 0 0 0 0
FullNghs:      755.812 ave       49646 max           0 min
Histogram: 1552 91 4 2 4 2 1 1 2 5

Total # of neighbors = 1257672
Ave neighs/atom = 108.04742
Ave special neighs/atom = 0
Neighbor list builds = 3762
Dangerous builds = 0

write_restart nvt_prod.restart.*
System init for write_restart ...
write_data nvt_prod_final.lammps-data
System init for write_data ...

Total wall time: 13:25:35
