 DBCSR| CPU Multiplication driver                                           BLAS
 DBCSR| Multrec recursion limit                                              512
 DBCSR| Multiplication stack size                                           1000
 DBCSR| Maximum elements for images                                    UNLIMITED
 DBCSR| Multiplicative factor virtual images                                   1
 DBCSR| Use multiplication densification                                       T
 DBCSR| Multiplication size stacks                                             3
 DBCSR| Use memory pool for CPU allocation                                     F
 DBCSR| Number of 3D layers                                               SINGLE
 DBCSR| Use MPI memory allocation                                              F
 DBCSR| Use RMA algorithm                                                      F
 DBCSR| Use Communication thread                                               T
 DBCSR| Communication thread load                                             87
 DBCSR| MPI: My node id                                                        0
 DBCSR| MPI: Number of nodes                                                 128
 DBCSR| OMP: Current number of threads                                         1
 DBCSR| OMP: Max number of threads                                             1
 DBCSR| Split modifier for TAS multiplication algorithm                  1.0E+00


  **** **** ******  **  PROGRAM STARTED AT               2025-10-22 11:40:25.306
 ***** ** ***  *** **   PROGRAM STARTED ON                             nid001136
 **    ****   ******    PROGRAM STARTED BY                            xr223_ukcp
 ***** **    ** ** **   PROGRAM PROCESS ID                                 57576
  **** **  *******  **  PROGRAM STARTED IN /mnt/lustre/a2fs-work3/work/e89/e89/x
                                           r223_ukcp/BINDING-ENERGY-DARREN/bindi
                                           ng-energy/1-leg/s+1.00/d+4.25

 CP2K| version string:                                          CP2K version 9.1
 CP2K| source code revision number:                                  git:d8d7100
 CP2K| cp2kflags: omp libint fftw3 libxc elpa parallel mpi3 scalapack plumed2 mk
 CP2K|            l
 CP2K| is freely available from                            https://www.cp2k.org/
 CP2K| Program compiled at                       Thu 08 Jun 2023 08:54:13 AM BST
 CP2K| Program compiled on                                                  ln03
 CP2K| Program compiled for                                              ARCHER2
 CP2K| Data directory path       /work/y07/shared/apps/core/cp2k/cp2k-9.1.0/data
 CP2K| Input file name                                              cp2k_sub.inp

 GLOBAL| Force Environment number                                              1
 GLOBAL| Basis set file name                                      GTH_BASIS_SETS
 GLOBAL| Potential file name                                           POTENTIAL
 GLOBAL| MM Potential file name                                     MM_POTENTIAL
 GLOBAL| Coordinate file name                                           init.pdb
 GLOBAL| Method name                                                        CP2K
 GLOBAL| Project name                                                    MAT-H2O
 GLOBAL| Run type                                                         ENERGY
 GLOBAL| FFT library                                                       FFTW3
 GLOBAL| Diagonalization library                                            ELPA
 GLOBAL| Minimum number of eigenvectors for ELPA usage                        16
 GLOBAL| Orthonormality check for eigenvectors                          DISABLED
 GLOBAL| Matrix multiplication library                                 ScaLAPACK
 GLOBAL| All-to-all communication in single precision                          F
 GLOBAL| FFTs using library dependent lengths                                  F
 GLOBAL| Grid backend                                                       AUTO
 GLOBAL| Global print level                                                  LOW
 GLOBAL| MPI I/O enabled                                                       T
 GLOBAL| Total number of message passing processes                           128
 GLOBAL| Number of threads for this process                                    1
 GLOBAL| This output is from process                                           0
 GLOBAL| Stack size for threads created by OpenMP (OMP_STACKSIZE)        default
 GLOBAL| CPU model name                          AMD EPYC 7742 64-Core Processor
 GLOBAL| CPUID                                                              1002

 MEMORY| system memory details [Kb]
 MEMORY|                        rank 0           min           max       average
 MEMORY| MemTotal            263266892     263266892     263266892     263266892
 MEMORY| MemFree             241255376     241255376     241255376     241255376
 MEMORY| Buffers                192404        192404        192404        192404
 MEMORY| Cached                1358568       1358568       1358568       1358568
 MEMORY| Slab                  3467116       3467116       3467116       3467116
 MEMORY| SReclaimable           987072        987072        987072        987072
 MEMORY| MemLikelyFree       243793420     243793420     243793420     243793420


 *******************************************************************************
 *******************************************************************************
 **                                                                           **
 **     #####                         ##              ##                      **
 **    ##   ##            ##          ##              ##                      **
 **   ##     ##                       ##            ######                    **
 **   ##     ##  ##   ##  ##   #####  ##  ##   ####   ##    #####    #####    **
 **   ##     ##  ##   ##  ##  ##      ## ##   ##      ##   ##   ##  ##   ##   **
 **   ##  ## ##  ##   ##  ##  ##      ####     ###    ##   ######   ######    **
 **    ##  ###   ##   ##  ##  ##      ## ##      ##   ##   ##       ##        **
 **     #######   #####   ##   #####  ##  ##  ####    ##    #####   ##        **
 **           ##                                                    ##        **
 **                                                                           **
 **                                                ... make the atoms dance   **
 **                                                                           **
 **            Copyright (C) by CP2K developers group (2000-2021)             **
 **                      J. Chem. Phys. 152, 194103 (2020)                    **
 **                                                                           **
 *******************************************************************************


 TOTAL NUMBERS AND MAXIMUM NUMBERS

  Total number of            - Atomic kinds:                                   3
                             - Atoms:                                         67
                             - Shell sets:                                    70
                             - Shells:                                       338
                             - Primitive Cartesian functions:                341
                             - Cartesian basis functions:                    938
                             - Spherical basis functions:                    872

  Maximum angular momentum of- Orbital basis functions:                        2
                             - Local part of the GTH pseudopotential:          2
                             - Non-local part of the GTH pseudopotential:      0


 SCF PARAMETERS         Density guess:                                   RESTART
                        --------------------------------------------------------
                        max_scf:                                              20
                        max_scf_history:                                       0
                        max_diis:                                              4
                        --------------------------------------------------------
                        eps_scf:                                        5.00E-07
                        eps_scf_history:                                0.00E+00
                        eps_diis:                                       1.00E-01
                        eps_eigval:                                     1.00E-05
                        --------------------------------------------------------
                        level_shift [a.u.]:                                 0.00
                        added MOs                                        20    0
                        --------------------------------------------------------
                        Mixing method:                            BROYDEN_MIXING
                                                charge density mixing in g-space
                        --------------------------------------------------------
                        Smear method:                                FERMI_DIRAC
                        Electronic temperature [K]:                        300.0
                        Electronic temperature [a.u.]:                  9.50E-04
                        Accuracy threshold:                             1.00E-10
                        --------------------------------------------------------
                        Outer loop SCF in use 
                        No variables optimised in outer loop
                        eps_scf                                         5.00E-07
                        max_scf                                               20
                        No outer loop optimization
                        step_size                                       5.00E-01

 Number of electrons:                                                        264
 Number of occupied orbitals:                                                132
 Number of molecular orbitals:                                               152

 Number of orbital functions:                                                872
 Number of independent orbital functions:                                    872

 Extrapolation method: initial_guess

 *** WARNING in qs_initial_guess.F:309 :: User requested to restart the    ***
 *** wavefunction from the file named: MAT-H2O-RESTART.wfn. This file does ***
 *** not exist. Please check the existence of the file or change properly  ***
 *** the value of the keyword WFN_RESTART_FILE_NAME. Calculation continues ***
 *** using ATOMIC GUESS.                                                   ***



 SCF WAVEFUNCTION OPTIMIZATION

  Step     Update method      Time    Convergence         Total energy    Change
  ------------------------------------------------------------------------------
     1 NoMix/Diag. 0.40E+00    0.6     1.20922976      -379.0562695730 -3.79E+02
     2 Broy./Diag. 0.40E+00    0.7     0.33155732      -370.0131589108  9.04E+00
     3 Broy./Diag. 0.40E+00    0.8     0.02140602      -378.8108993867 -8.80E+00
     4 Broy./Diag. 0.40E+00    0.8     0.01034003      -382.3620162371 -3.55E+00
     5 Broy./Diag. 0.40E+00    0.8     0.00320006      -382.5463907043 -1.84E-01
     6 Broy./Diag. 0.40E+00    0.8     0.00113545      -382.2421790068  3.04E-01
     7 Broy./Diag. 0.40E+00    0.8     0.00106218      -382.1968776942  4.53E-02
     8 Broy./Diag. 0.40E+00    0.8     0.00197368      -382.2007233557 -3.85E-03
     9 Broy./Diag. 0.40E+00    0.8     0.00129114      -382.1958986263  4.82E-03
    10 Broy./Diag. 0.40E+00    0.8     0.00045476      -382.1971613898 -1.26E-03
    11 Broy./Diag. 0.40E+00    0.8     0.00083976      -382.1952394403  1.92E-03
    12 Broy./Diag. 0.40E+00    0.8     0.00016815      -382.1957445148 -5.05E-04
    13 Broy./Diag. 0.40E+00    0.8     0.00006659      -382.1962298343 -4.85E-04
    14 Broy./Diag. 0.40E+00    0.8     0.00007680      -382.1957559827  4.74E-04
    15 Broy./Diag. 0.40E+00    0.8     0.00003567      -382.1956571374  9.88E-05
    16 Broy./Diag. 0.40E+00    0.8     0.00002111      -382.1957735285 -1.16E-04
    17 Broy./Diag. 0.40E+00    0.8     0.00000281      -382.1958291313 -5.56E-05
    18 Broy./Diag. 0.40E+00    0.8     0.00000319      -382.1958227818  6.35E-06
    19 Broy./Diag. 0.40E+00    0.8     0.00000082      -382.1958327377 -9.96E-06
    20 Broy./Diag. 0.40E+00    0.8     0.00000136      -382.1958455878 -1.29E-05

  Leaving inner SCF loop after reaching    20 steps.


  Electronic density on regular grids:       -264.0000000000        0.0000000000
  Core density on regular grids:              263.9999999998       -0.0000000002
  Total charge density on r-space grids:       -0.0000000002
  Total charge density g-space grids:          -0.0000000002

  Overlap energy of the core charge distribution:               0.00000793211145
  Self energy of the core charge distribution:               -897.78766230971098
  Core Hamiltonian energy:                                    278.64065811513069
  Hartree energy:                                             353.03409358916991
  Exchange-correlation energy:                               -115.90840651835957
  Dispersion energy:                                           -0.17453639611327
  Electronic entropic energy:                                  -0.00000000000000
  Fermi energy:                                                -0.06855735088391

  Total energy:                                              -382.19584558777183

  outer SCF iter =    1 RMS gradient =   0.14E-05 energy =       -382.1958455878
     1 Broy./Diag. 0.40E+00    1.5     0.00000080      -382.1958588340 -1.32E-05
     2 Broy./Diag. 0.40E+00    0.8     0.00000102      -382.1958590504 -2.16E-07
     3 Broy./Diag. 0.40E+00    0.8     0.00000049      -382.1958465799  1.25E-05

  *** SCF run converged in     3 steps ***


  Electronic density on regular grids:       -264.0000000000        0.0000000000
  Core density on regular grids:              263.9999999998       -0.0000000002
  Total charge density on r-space grids:       -0.0000000002
  Total charge density g-space grids:          -0.0000000002

  Overlap energy of the core charge distribution:               0.00000793211145
  Self energy of the core charge distribution:               -897.78766230971098
  Core Hamiltonian energy:                                    278.64065135384101
  Hartree energy:                                             353.03410082568598
  Exchange-correlation energy:                               -115.90840798568912
  Dispersion energy:                                           -0.17453639611327
  Electronic entropic energy:                                  -0.00000000000000
  Fermi energy:                                                -0.06855703959205

  Total energy:                                              -382.19584657987497

  outer SCF iter =    2 RMS gradient =   0.49E-06 energy =       -382.1958465799
  outer SCF loop converged in   2 iterations or   23 steps


 ENERGY| Total FORCE_EVAL ( QS ) energy [a.u.]:             -382.195846579874967

 -------------------------------------------------------------------------------
 -                                                                             -
 -                                DBCSR STATISTICS                             -
 -                                                                             -
 -------------------------------------------------------------------------------
 COUNTER                                    TOTAL       BLAS       SMM       ACC
 flops     9 x    22 x    24               218592     100.0%      0.0%      0.0%
 flops    22 x     9 x    24               218592     100.0%      0.0%      0.0%
 flops     9 x     9 x    24               268272     100.0%      0.0%      0.0%
 flops    22 x    22 x    24               534336     100.0%      0.0%      0.0%
 flops     9 x    22 x    32              1165824     100.0%      0.0%      0.0%
 flops    22 x     9 x    32              1165824     100.0%      0.0%      0.0%
 flops     9 x     9 x    32              1430784     100.0%      0.0%      0.0%
 flops    22 x    22 x    32              2849792     100.0%      0.0%      0.0%
 flops     9 x    13 x    24              8266752     100.0%      0.0%      0.0%
 flops    13 x     9 x    24              8266752     100.0%      0.0%      0.0%
 flops    22 x    13 x    24             10103808     100.0%      0.0%      0.0%
 flops    13 x    22 x    24             10103808     100.0%      0.0%      0.0%
 flops     9 x    13 x    32             44089344     100.0%      0.0%      0.0%
 flops    13 x     9 x    32             44089344     100.0%      0.0%      0.0%
 flops    22 x    13 x    32             53886976     100.0%      0.0%      0.0%
 flops    13 x    22 x    32             53886976     100.0%      0.0%      0.0%
 flops    13 x    13 x    24            388078080     100.0%      0.0%      0.0%
 flops    13 x    13 x    32           2069749760     100.0%      0.0%      0.0%
 flops inhomo. stacks                           0       0.0%      0.0%      0.0%
 flops total                         2.698374E+09     100.0%      0.0%      0.0%
 flops max/rank                     35.267648E+06     100.0%      0.0%      0.0%
 matmuls inhomo. stacks                         0       0.0%      0.0%      0.0%
 matmuls total                             261970     100.0%      0.0%      0.0%
 number of processed stacks                 23575     100.0%      0.0%      0.0%
 average stack size                                    11.1       0.0       0.0
 marketing flops                     4.617052E+09
 -------------------------------------------------------------------------------
 # multiplications                             23
 max memory usage/rank             343.912448E+06
 # max total images/rank                        2
 # max 3D layers                                1
 # MPI messages exchanged                   85376
 MPI messages size (bytes):
  total size                       536.538112E+06
  min size                           0.000000E+00
  max size                          29.952000E+03
  average size                       6.284414E+03
 MPI breakdown and total messages size (bytes):
             size <=      128               58696                        0
       128 < size <=     8192                   0                        0
      8192 < size <=    32768               26680                536538112
     32768 < size <=   131072                   0                        0
    131072 < size <=  4194304                   0                        0
   4194304 < size <= 16777216                   0                        0
  16777216 < size                               0                        0
 -------------------------------------------------------------------------------

 *** WARNING in dbcsr_mm.F:294 :: Using a non-square number of MPI ranks ***
 *** might lead to poor performance. Used ranks: 128 Suggested: 121 256  ***

 -------------------------------------------------------------------------------
 -                                                                             -
 -                      DBCSR MESSAGE PASSING PERFORMANCE                      -
 -                                                                             -
 -------------------------------------------------------------------------------
 ROUTINE             CALLS      AVE VOLUME [Bytes]
 MP_Bcast               19                     12.
 MP_Allreduce          217                     12.
 MP_Alltoall           656                  51873.
 MP_ISend             1472                   3590.
 MP_IRecv             1472                   2683.
 -------------------------------------------------------------------------------

 -------------------------------------------------------------------------------
 -                                                                             -
 -                                GRID STATISTICS                              -
 -                                                                             -
 -------------------------------------------------------------------------------
 LP    KERNEL             BACKEND                              COUNT     PERCENT
 4     collocate ortho    REF                                1129032      47.27%
 4     integrate ortho    REF                                1081989      45.30%
 2     collocate ortho    REF                                  44856       1.88%
 2     integrate ortho    REF                                  42987       1.80%
 3     collocate ortho    REF                                  36720       1.54%
 3     integrate ortho    REF                                  35190       1.47%
 0     collocate general  REF                                   8576       0.36%
 1     collocate ortho    REF                                   2736       0.11%
 1     integrate ortho    REF                                   2622       0.11%
 0     collocate ortho    REF                                   1920       0.08%
 0     integrate ortho    REF                                   1840       0.08%
 -------------------------------------------------------------------------------

 MEMORY| Estimated peak process memory [MiB]                                 329

 -------------------------------------------------------------------------------
 -                                                                             -
 -                         MESSAGE PASSING PERFORMANCE                         -
 -                                                                             -
 -------------------------------------------------------------------------------

 ROUTINE             CALLS      AVE VOLUME [Bytes]
 MP_Group                5
 MP_Bcast              182                3572116.
 MP_Allreduce          631                   1561.
 MP_Sync                51
 MP_Alltoall           367                3388467.
 MP_SendRecv           276                 409600.
 MP_ISendRecv        17907                  24960.
 MP_Wait             20377
 MP_comm_split          23
 MP_ISend             2090                 367034.
 MP_IRecv             2090                 367136.
 MP_Recv                15                  69760.
 -------------------------------------------------------------------------------


 -------------------------------------------------------------------------------
 -                                                                             -
 -                           R E F E R E N C E S                               -
 -                                                                             -
 -------------------------------------------------------------------------------
 
 CP2K version 9.1, the CP2K developers group (2021).
 CP2K is freely available from https://www.cp2k.org/ .

 Kuehne,Thomas D.; Iannuzzi,Marcella; Del Ben,Mauro;
 Rybkin,Vladimir V.; Seewald,Patrick; Stein,Frederick; Laino,Teodoro;
 Khaliullin,Rustam Z.; Schuett,Ole; Schiffmann,Florian; Golze,Dorothea;
 Wilhelm,Jan; Chulkov,Sergey; Bani-Hashemian,Mohammad Hossein;
 Weber,Valery; Borstnik,Urban; Taillefumier,Mathieu;
 Jakobovits,Alice Shoshana; Lazzaro,Alfio; Pabst,Hans; Mueller,Tiziano;
 Schade,Robert; Guidon,Manuel; Andermatt,Samuel; Holmberg,Nico;
 Schenter,Gregory K.; Hehn,Anna; Bussy,Augustin; Belleflamme,Fabian;
 Tabacchi,Gloria; Gloess,Andreas; Lass,Michael; Bethune,Iain;
 Mundy,Christopher J.; Plessl,Christian; Watkins,Matt;
 VandeVondele,Joost; Krack,Matthias; Hutter,Juerg. 
 The Journal of Chemical Physics, 152 (19), (2020). 
 CP2K: An electronic structure and molecular dynamics software package -
 Quickstep: Efficient and accurate electronic structure calculations.
 https://doi.org/10.1063/5.0007045

 Goerigk, Lars; Hansen, Andreas; Bauer, Christoph; Ehrlich, Stephan;
 Najibi, Asim; Grimme, Stefan. , 19 (48), (2017). 
 A look at the density functional theory zoo with the advanced GMTKN55 database
 for general main group thermochemistry, kinetics and noncovalent interactions.
 https://doi.org/10.1039/C7CP04913G

 Schuett, Ole; Messmer, Peter; Hutter, Juerg; VandeVondele, Joost. 
 Electronic Structure Calculations on Graphics Processing Units, John
 Wiley & Sons, Ltd, 173-190 (2016). 
 GPU-Accelerated Sparse Matrix-Matrix Multiplication for
 Linear Scaling Density Functional Theory.
 https://doi.org/10.1002/9781118670712.ch8

 Borstnik, U; VandeVondele, J; Weber, V; Hutter, J. 
 PARALLEL COMPUTING, 40 (5-6), 47-58 (2014). 
 Sparse matrix multiplication: The distributed block-compressed sparse
 row library.
 https://doi.org/10.1016/j.parco.2014.03.012

 Hutter, J; Iannuzzi, M; Schiffmann, F; VandeVondele, J. 
 WIREs Comput Mol Sci., 4 (1), 15-25 (2014). 
 CP2K: atomistic simulations of condensed matter systems.
 https://doi.org/10.1002/wcms.1159

 Marek, A; Blum, V; Johanni, R; Havu, V; Lang, B; Auckenthaler, T;
 Heinecke, A; Bungartz, H; Lederer, H. 
 Journal of Physics: Condensed Matter, 26 (21), (2014). 
 The ELPA library: scalable parallel eigenvalue solutions for
 electronic structure
 theory and computational science.
 https://doi.org/10.1088/0953-8984/26/21/213201

 Grimme, S; Ehrlich, S; Goerigk, L. 
 JOURNAL OF COMPUTATIONAL CHEMISTRY, 32, 1456 (2011). 
 Effect of the damping function in dispersion corrected density functional theory.
 https://doi.org/10.1002/jcc.21759

 Grimme, S; Antony, J; Ehrlich, S; Krieg, H. 
 JOURNAL OF CHEMICAL PHYSICS, 132 (15), 154104 (2010). 
 A consistent and accurate ab initio parametrization of density
 functional dispersion correction (DFT-D) for the 94 elements H-Pu.
 https://doi.org/10.1063/1.3382344

 VandeVondele, J; Hutter, J. 
 JOURNAL OF CHEMICAL PHYSICS, 127 (11), 114105 (2007). 
 Gaussian basis sets for accurate calculations on molecular systems in
 gas and condensed phases.
 https://doi.org/10.1063/1.2770708

 Krack, M. 
 THEORETICAL CHEMISTRY ACCOUNTS, 114 (1-3), 145-152 (2005). 
 Pseudopotentials for H to Kr optimized for gradient-corrected
 exchange-correlation functionals.
 https://doi.org/10.1007/s00214-005-0655-y

 VandeVondele, J; Krack, M; Mohamed, F; Parrinello, M; Chassaing, T;
 Hutter, J. COMPUTER PHYSICS COMMUNICATIONS, 167 (2), 103-128 (2005). 
 QUICKSTEP: Fast and accurate density functional calculations using a
 mixed Gaussian and plane waves approach.
 https://doi.org/10.1016/j.cpc.2004.12.014

 Frigo, M; Johnson, SG. 
 PROCEEDINGS OF THE IEEE, 93 (2), 216-231 (2005). 
 The design and implementation of FFTW3.
 https://doi.org/10.1109/JPROC.2004.840301

 Hartwigsen, C; Goedecker, S; Hutter, J. 
 PHYSICAL REVIEW B, 58 (7), 3641-3662 (1998). 
 Relativistic separable dual-space Gaussian pseudopotentials from H to Rn.
 https://doi.org/10.1103/PhysRevB.58.3641

 Zhang, YK; Yang, WT. 
 PHYSICAL REVIEW LETTERS, 80 (4), 890-890 (1998). 
 Comment on Generalized gradient approximation made simple.
 https://doi.org/10.1103/PhysRevLett.80.890

 Lippert, G; Hutter, J; Parrinello, M. 
 MOLECULAR PHYSICS, 92 (3), 477-487 (1997). 
 A hybrid Gaussian and plane wave density functional scheme.
 https://doi.org/10.1080/002689797170220

 Perdew, JP; Burke, K; Ernzerhof, M. 
 PHYSICAL REVIEW LETTERS, 77 (18), 3865-3868 (1996). 
 Generalized gradient approximation made simple.
 https://doi.org/10.1103/PhysRevLett.77.3865

 Goedecker, S; Teter, M; Hutter, J. 
 PHYSICAL REVIEW B, 54 (3), 1703-1710 (1996). 
 Separable dual-space Gaussian pseudopotentials.
 https://doi.org/10.1103/PhysRevB.54.1703


 -------------------------------------------------------------------------------
 -                                                                             -
 -                                T I M I N G                                  -
 -                                                                             -
 -------------------------------------------------------------------------------
 SUBROUTINE                       CALLS  ASD         SELF TIME        TOTAL TIME
                                MAXIMUM       AVERAGE  MAXIMUM  AVERAGE  MAXIMUM
 CP2K                                 1  1.0    0.110    0.121   19.849   19.853
 qs_energies                          1  2.0    0.006    0.010   19.182   19.191
 scf_env_do_scf                       1  3.0    0.002    0.004   18.300   18.305
 scf_env_do_scf_inner_loop           23  4.0    0.008    0.011   18.297   18.302
 qs_ks_update_qs_env                 23  5.0    0.001    0.001    7.948    7.953
 rebuild_ks_matrix                   23  6.0    0.003    0.004    7.943    7.946
 qs_ks_build_kohn_sham_matrix        23  7.0    0.011    0.018    7.940    7.944
 rs_pw_transfer                     236  9.5    0.005    0.006    5.614    5.812
 qs_rho_update_rho                   24  5.0    0.001    0.002    5.700    5.703
 calculate_rho_elec                  24  6.0    0.022    0.024    5.699    5.702
 density_rs2pw                       24  7.0    0.004    0.005    4.275    4.497
 sum_up_and_integrate                23  8.0    0.025    0.034    4.146    4.150
 integrate_v_rspace                  23  9.0    0.001    0.002    4.121    4.132
 pw_transfer                        350  9.0    0.065    0.073    3.726    3.930
 fft_wrap_pw1pw2                    304 10.0    0.003    0.004    3.571    3.778
 potential_pw2rs                     23 10.0    0.003    0.003    3.744    3.758
 fft_wrap_pw1pw2_530                116 10.2    0.313    0.370    3.274    3.421
 fft3d_ps                           304 12.0    1.503    1.644    2.747    2.977
 qs_vxc_create                       23  8.0    0.003    0.005    2.621    2.709
 xc_vxc_pw_create                    23  9.0    0.067    0.079    2.618    2.706
 gspace_mixing                       21  5.0    0.019    0.022    2.483    2.486
 qs_scf_new_mos                      23  5.0    0.003    0.004    2.440    2.446
 eigensolver                         23  6.0    0.003    0.005    2.270    2.272
 rs_pw_transfer_RS2PW_530            25  8.9    1.143    1.333    1.868    2.064
 xc_rho_set_and_dset_create          23 10.0    0.041    0.056    1.833    2.055
 cp_fm_diag_elpa                     23  7.0    0.000    0.000    2.023    2.031
 cp_fm_redistribute_end              23  8.0    1.745    1.998    1.747    1.998
 cp_fm_diag_elpa_base                23  8.0    0.244    1.956    0.247    1.979
 rs_pw_transfer_PW2RS_530            23 12.0    1.214    1.287    1.878    1.953
 mp_waitany                        2090 11.4    1.391    1.947    1.391    1.947
 broyden_mixing                      21  6.0    1.817    1.860    1.855    1.876
 pw_nn_compose_r                    138 10.5    0.739    0.780    1.083    1.620
 grid_collocate_task_list            24  7.0    1.341    1.439    1.341    1.439
 xc_functional_eval                  23 11.0    0.000    0.001    1.153    1.356
 pbe_lda_eval                        23 12.0    1.153    1.356    1.153    1.356
 mp_alltoall_z22v                   304 14.0    0.929    1.221    0.929    1.221
 mp_sendrecv_dm2                    276 11.5    0.344    0.942    0.344    0.942
 mp_waitall_1                     20863 11.5    0.741    0.850    0.741    0.850
 x_to_yz                            160 13.5    0.189    0.225    0.678    0.773
 yz_to_x                            144 12.5    0.115    0.162    0.556    0.756
 mp_sum_d                           607  3.6    0.308    0.621    0.308    0.621
 init_scf_run                         1  3.0    0.002    0.003    0.574    0.578
 rs_pw_transfer_PW2RS_180            23 12.0    0.214    0.236    0.448    0.500
 pw_poisson_solve                    23  8.0    0.158    0.167    0.404    0.407
 scf_env_initial_rho_setup            1  4.0    0.003    0.006    0.400    0.402
 rs_pw_transfer_PW2RS_60             23 12.0    0.118    0.177    0.377    0.398
 rs_pw_transfer_RS2PW_180            24  9.0    0.210    0.228    0.375    0.398
 -------------------------------------------------------------------------------

 The number of warnings for this run is : 2
 
 -------------------------------------------------------------------------------
  **** **** ******  **  PROGRAM ENDED AT                 2025-10-22 11:40:52.539
 ***** ** ***  *** **   PROGRAM RAN ON                                 nid001136
 **    ****   ******    PROGRAM RAN BY                                xr223_ukcp
 ***** **    ** ** **   PROGRAM PROCESS ID                                 57576
  **** **  *******  **  PROGRAM STOPPED IN /mnt/lustre/a2fs-work3/work/e89/e89/x
                                           r223_ukcp/BINDING-ENERGY-DARREN/bindi
                                           ng-energy/1-leg/s+1.00/d+4.25
 DBCSR| CPU Multiplication driver                                           BLAS
 DBCSR| Multrec recursion limit                                              512
 DBCSR| Multiplication stack size                                           1000
 DBCSR| Maximum elements for images                                    UNLIMITED
 DBCSR| Multiplicative factor virtual images                                   1
 DBCSR| Use multiplication densification                                       T
 DBCSR| Multiplication size stacks                                             3
 DBCSR| Use memory pool for CPU allocation                                     F
 DBCSR| Number of 3D layers                                               SINGLE
 DBCSR| Use MPI memory allocation                                              F
 DBCSR| Use RMA algorithm                                                      F
 DBCSR| Use Communication thread                                               T
 DBCSR| Communication thread load                                             87
 DBCSR| MPI: My node id                                                        0
 DBCSR| MPI: Number of nodes                                                 128
 DBCSR| OMP: Current number of threads                                         1
 DBCSR| OMP: Max number of threads                                             1
 DBCSR| Split modifier for TAS multiplication algorithm                  1.0E+00


  **** **** ******  **  PROGRAM STARTED AT               2025-10-22 11:41:12.272
 ***** ** ***  *** **   PROGRAM STARTED ON                             nid002114
 **    ****   ******    PROGRAM STARTED BY                            xr223_ukcp
 ***** **    ** ** **   PROGRAM PROCESS ID                                255063
  **** **  *******  **  PROGRAM STARTED IN /mnt/lustre/a2fs-work3/work/e89/e89/x
                                           r223_ukcp/BINDING-ENERGY-DARREN/bindi
                                           ng-energy/1-leg/s+1.00/d+4.25

 CP2K| version string:                                          CP2K version 9.1
 CP2K| source code revision number:                                  git:d8d7100
 CP2K| cp2kflags: omp libint fftw3 libxc elpa parallel mpi3 scalapack plumed2 mk
 CP2K|            l
 CP2K| is freely available from                            https://www.cp2k.org/
 CP2K| Program compiled at                       Thu 08 Jun 2023 08:54:13 AM BST
 CP2K| Program compiled on                                                  ln03
 CP2K| Program compiled for                                              ARCHER2
 CP2K| Data directory path       /work/y07/shared/apps/core/cp2k/cp2k-9.1.0/data
 CP2K| Input file name                                              cp2k_sub.inp

 GLOBAL| Force Environment number                                              1
 GLOBAL| Basis set file name                                      GTH_BASIS_SETS
 GLOBAL| Potential file name                                           POTENTIAL
 GLOBAL| MM Potential file name                                     MM_POTENTIAL
 GLOBAL| Coordinate file name                                           init.pdb
 GLOBAL| Method name                                                        CP2K
 GLOBAL| Project name                                                    MAT-H2O
 GLOBAL| Run type                                                         ENERGY
 GLOBAL| FFT library                                                       FFTW3
 GLOBAL| Diagonalization library                                            ELPA
 GLOBAL| Minimum number of eigenvectors for ELPA usage                        16
 GLOBAL| Orthonormality check for eigenvectors                          DISABLED
 GLOBAL| Matrix multiplication library                                 ScaLAPACK
 GLOBAL| All-to-all communication in single precision                          F
 GLOBAL| FFTs using library dependent lengths                                  F
 GLOBAL| Grid backend                                                       AUTO
 GLOBAL| Global print level                                                  LOW
 GLOBAL| MPI I/O enabled                                                       T
 GLOBAL| Total number of message passing processes                           128
 GLOBAL| Number of threads for this process                                    1
 GLOBAL| This output is from process                                           0
 GLOBAL| Stack size for threads created by OpenMP (OMP_STACKSIZE)        default
 GLOBAL| CPU model name                          AMD EPYC 7742 64-Core Processor
 GLOBAL| CPUID                                                              1002

 MEMORY| system memory details [Kb]
 MEMORY|                        rank 0           min           max       average
 MEMORY| MemTotal            263266632     263266632     263266632     263266632
 MEMORY| MemFree             241259412     241259412     241259440     241259435
 MEMORY| Buffers                182416        182416        182416        182416
 MEMORY| Cached                1371820       1371820       1371820       1371820
 MEMORY| Slab                  3494324       3494324       3494324       3494324
 MEMORY| SReclaimable           996752        996752        996752        996752
 MEMORY| MemLikelyFree       243810400     243810400     243810428     243810423


 *******************************************************************************
 *******************************************************************************
 **                                                                           **
 **     #####                         ##              ##                      **
 **    ##   ##            ##          ##              ##                      **
 **   ##     ##                       ##            ######                    **
 **   ##     ##  ##   ##  ##   #####  ##  ##   ####   ##    #####    #####    **
 **   ##     ##  ##   ##  ##  ##      ## ##   ##      ##   ##   ##  ##   ##   **
 **   ##  ## ##  ##   ##  ##  ##      ####     ###    ##   ######   ######    **
 **    ##  ###   ##   ##  ##  ##      ## ##      ##   ##   ##       ##        **
 **     #######   #####   ##   #####  ##  ##  ####    ##    #####   ##        **
 **           ##                                                    ##        **
 **                                                                           **
 **                                                ... make the atoms dance   **
 **                                                                           **
 **            Copyright (C) by CP2K developers group (2000-2021)             **
 **                      J. Chem. Phys. 152, 194103 (2020)                    **
 **                                                                           **
 *******************************************************************************


 TOTAL NUMBERS AND MAXIMUM NUMBERS

  Total number of            - Atomic kinds:                                   3
                             - Atoms:                                         67
                             - Shell sets:                                    70
                             - Shells:                                       338
                             - Primitive Cartesian functions:                341
                             - Cartesian basis functions:                    938
                             - Spherical basis functions:                    872

  Maximum angular momentum of- Orbital basis functions:                        2
                             - Local part of the GTH pseudopotential:          2
                             - Non-local part of the GTH pseudopotential:      0


 SCF PARAMETERS         Density guess:                                   RESTART
                        --------------------------------------------------------
                        max_scf:                                              20
                        max_scf_history:                                       0
                        max_diis:                                              4
                        --------------------------------------------------------
                        eps_scf:                                        5.00E-07
                        eps_scf_history:                                0.00E+00
                        eps_diis:                                       1.00E-01
                        eps_eigval:                                     1.00E-05
                        --------------------------------------------------------
                        level_shift [a.u.]:                                 0.00
                        added MOs                                        20    0
                        --------------------------------------------------------
                        Mixing method:                            BROYDEN_MIXING
                                                charge density mixing in g-space
                        --------------------------------------------------------
                        Smear method:                                FERMI_DIRAC
                        Electronic temperature [K]:                        300.0
                        Electronic temperature [a.u.]:                  9.50E-04
                        Accuracy threshold:                             1.00E-10
                        --------------------------------------------------------
                        Outer loop SCF in use 
                        No variables optimised in outer loop
                        eps_scf                                         5.00E-07
                        max_scf                                               20
                        No outer loop optimization
                        step_size                                       5.00E-01

 Number of electrons:                                                        264
 Number of occupied orbitals:                                                132
 Number of molecular orbitals:                                               152

 Number of orbital functions:                                                872
 Number of independent orbital functions:                                    872

 Extrapolation method: initial_guess


 SCF WAVEFUNCTION OPTIMIZATION

  Step     Update method      Time    Convergence         Total energy    Change
  ------------------------------------------------------------------------------
     1 NoMix/Diag. 0.40E+00    0.5     0.00000118      -382.1958588340 -3.82E+02
     2 Broy./Diag. 0.40E+00    0.7     0.00000054      -382.1958634212 -4.59E-06
     3 Broy./Diag. 0.40E+00    0.7     0.00000017      -382.1958617079  1.71E-06

  *** SCF run converged in     3 steps ***


  Electronic density on regular grids:       -264.0000000000        0.0000000000
  Core density on regular grids:              263.9999999998       -0.0000000002
  Total charge density on r-space grids:       -0.0000000002
  Total charge density g-space grids:          -0.0000000002

  Overlap energy of the core charge distribution:               0.00000793211145
  Self energy of the core charge distribution:               -897.78766230971098
  Core Hamiltonian energy:                                    278.64064245694829
  Hartree energy:                                             353.03409796805204
  Exchange-correlation energy:                               -115.90841135915409
  Dispersion energy:                                           -0.17453639611327
  Electronic entropic energy:                                  -0.00000000000000
  Fermi energy:                                                -0.06855658060227

  Total energy:                                              -382.19586170786664

  outer SCF iter =    1 RMS gradient =   0.17E-06 energy =       -382.1958617079
  outer SCF loop converged in   1 iterations or    3 steps


 ENERGY| Total FORCE_EVAL ( QS ) energy [a.u.]:             -382.195861707866641

 -------------------------------------------------------------------------------
 -                                                                             -
 -                                DBCSR STATISTICS                             -
 -                                                                             -
 -------------------------------------------------------------------------------
 COUNTER                                    TOTAL       BLAS       SMM       ACC
 flops     9 x    24 x     9                15552     100.0%      0.0%      0.0%
 flops     9 x    24 x    22                19008     100.0%      0.0%      0.0%
 flops    22 x    24 x     9                19008     100.0%      0.0%      0.0%
 flops    22 x    24 x    22                23232     100.0%      0.0%      0.0%
 flops     9 x    22 x    24                38016     100.0%      0.0%      0.0%
 flops    22 x     9 x    24                38016     100.0%      0.0%      0.0%
 flops     9 x     9 x    24                46656     100.0%      0.0%      0.0%
 flops     9 x    32 x     9                82944     100.0%      0.0%      0.0%
 flops    22 x    22 x    24                92928     100.0%      0.0%      0.0%
 flops    22 x    32 x     9               101376     100.0%      0.0%      0.0%
 flops     9 x    32 x    22               101376     100.0%      0.0%      0.0%
 flops    22 x    32 x    22               123904     100.0%      0.0%      0.0%
 flops     9 x    22 x    32               202752     100.0%      0.0%      0.0%
 flops    22 x     9 x    32               202752     100.0%      0.0%      0.0%
 flops     9 x     9 x    32               248832     100.0%      0.0%      0.0%
 flops    22 x    22 x    32               495616     100.0%      0.0%      0.0%
 flops     9 x    24 x    13               718848     100.0%      0.0%      0.0%
 flops    13 x    24 x     9               718848     100.0%      0.0%      0.0%
 flops    13 x    24 x    22               878592     100.0%      0.0%      0.0%
 flops    22 x    24 x    13               878592     100.0%      0.0%      0.0%
 flops     9 x    13 x    24              1437696     100.0%      0.0%      0.0%
 flops    13 x     9 x    24              1437696     100.0%      0.0%      0.0%
 flops    22 x    13 x    24              1757184     100.0%      0.0%      0.0%
 flops    13 x    22 x    24              1757184     100.0%      0.0%      0.0%
 flops    13 x    32 x     9              3833856     100.0%      0.0%      0.0%
 flops     9 x    32 x    13              3833856     100.0%      0.0%      0.0%
 flops    22 x    32 x    13              4685824     100.0%      0.0%      0.0%
 flops    13 x    32 x    22              4685824     100.0%      0.0%      0.0%
 flops     9 x    13 x    32              7667712     100.0%      0.0%      0.0%
 flops    13 x     9 x    32              7667712     100.0%      0.0%      0.0%
 flops    22 x    13 x    32              9371648     100.0%      0.0%      0.0%
 flops    13 x    22 x    32              9371648     100.0%      0.0%      0.0%
 flops    13 x    24 x    13             33226752     100.0%      0.0%      0.0%
 flops    13 x    13 x    24             67491840     100.0%      0.0%      0.0%
 flops    13 x    32 x    13            177209344     100.0%      0.0%      0.0%
 flops    13 x    13 x    32            359956480     100.0%      0.0%      0.0%
 flops inhomo. stacks                           0       0.0%      0.0%      0.0%
 flops total                       700.439104E+06     100.0%      0.0%      0.0%
 flops max/rank                     12.663040E+06     100.0%      0.0%      0.0%
 matmuls inhomo. stacks                         0       0.0%      0.0%      0.0%
 matmuls total                              68005     100.0%      0.0%      0.0%
 number of processed stacks                  5145     100.0%      0.0%      0.0%
 average stack size                                    13.2       0.0       0.0
 marketing flops                     1.034122E+09
 -------------------------------------------------------------------------------
 # multiplications                              5
 max memory usage/rank             309.194752E+06
 # max total images/rank                        2
 # max 3D layers                                1
 # MPI messages exchanged                   18560
 MPI messages size (bytes):
  total size                       191.979520E+06
  min size                           0.000000E+00
  max size                          60.840000E+03
  average size                      10.343725E+03
 MPI breakdown and total messages size (bytes):
             size <=      128               11440                        0
       128 < size <=     8192                   0                        0
      8192 < size <=    32768                5200                100733440
     32768 < size <=   131072                1920                 91246080
    131072 < size <=  4194304                   0                        0
   4194304 < size <= 16777216                   0                        0
  16777216 < size                               0                        0
 -------------------------------------------------------------------------------

 *** WARNING in dbcsr_mm.F:294 :: Using a non-square number of MPI ranks ***
 *** might lead to poor performance. Used ranks: 128 Suggested: 121 256  ***

 -------------------------------------------------------------------------------
 -                                                                             -
 -                      DBCSR MESSAGE PASSING PERFORMANCE                      -
 -                                                                             -
 -------------------------------------------------------------------------------
 ROUTINE             CALLS      AVE VOLUME [Bytes]
 MP_Bcast               37                     12.
 MP_Allreduce          120                     21.
 MP_Alltoall           133                  50888.
 MP_ISend              320                   5897.
 MP_IRecv              320                   5177.
 -------------------------------------------------------------------------------

 -------------------------------------------------------------------------------
 -                                                                             -
 -                                GRID STATISTICS                              -
 -                                                                             -
 -------------------------------------------------------------------------------
 LP    KERNEL             BACKEND                              COUNT     PERCENT
 4     collocate ortho    REF                                 188172      51.83%
 4     integrate ortho    REF                                 141129      38.88%
 0     collocate general  REF                                   8576       2.36%
 2     collocate ortho    REF                                   7476       2.06%
 3     collocate ortho    REF                                   6120       1.69%
 2     integrate ortho    REF                                   5607       1.54%
 3     integrate ortho    REF                                   4590       1.26%
 1     collocate ortho    REF                                    456       0.13%
 1     integrate ortho    REF                                    342       0.09%
 0     collocate ortho    REF                                    320       0.09%
 0     integrate ortho    REF                                    240       0.07%
 -------------------------------------------------------------------------------

 MEMORY| Estimated peak process memory [MiB]                                 297

 -------------------------------------------------------------------------------
 -                                                                             -
 -                         MESSAGE PASSING PERFORMANCE                         -
 -                                                                             -
 -------------------------------------------------------------------------------

 ROUTINE             CALLS      AVE VOLUME [Bytes]
 MP_Group                5
 MP_Bcast              285                2284788.
 MP_Allreduce          362                   2688.
 MP_Sync                13
 MP_Alltoall            68                2687882.
 MP_SendRecv            36                 409600.
 MP_ISendRecv         2667                  24960.
 MP_Wait              3057
 MP_comm_split           4
 MP_ISend              330                 377187.
 MP_IRecv              330                 377834.
 MP_Recv                15                  69760.
 -------------------------------------------------------------------------------


 -------------------------------------------------------------------------------
 -                                                                             -
 -                           R E F E R E N C E S                               -
 -                                                                             -
 -------------------------------------------------------------------------------
 
 CP2K version 9.1, the CP2K developers group (2021).
 CP2K is freely available from https://www.cp2k.org/ .

 Kuehne,Thomas D.; Iannuzzi,Marcella; Del Ben,Mauro;
 Rybkin,Vladimir V.; Seewald,Patrick; Stein,Frederick; Laino,Teodoro;
 Khaliullin,Rustam Z.; Schuett,Ole; Schiffmann,Florian; Golze,Dorothea;
 Wilhelm,Jan; Chulkov,Sergey; Bani-Hashemian,Mohammad Hossein;
 Weber,Valery; Borstnik,Urban; Taillefumier,Mathieu;
 Jakobovits,Alice Shoshana; Lazzaro,Alfio; Pabst,Hans; Mueller,Tiziano;
 Schade,Robert; Guidon,Manuel; Andermatt,Samuel; Holmberg,Nico;
 Schenter,Gregory K.; Hehn,Anna; Bussy,Augustin; Belleflamme,Fabian;
 Tabacchi,Gloria; Gloess,Andreas; Lass,Michael; Bethune,Iain;
 Mundy,Christopher J.; Plessl,Christian; Watkins,Matt;
 VandeVondele,Joost; Krack,Matthias; Hutter,Juerg. 
 The Journal of Chemical Physics, 152 (19), (2020). 
 CP2K: An electronic structure and molecular dynamics software package -
 Quickstep: Efficient and accurate electronic structure calculations.
 https://doi.org/10.1063/5.0007045

 Goerigk, Lars; Hansen, Andreas; Bauer, Christoph; Ehrlich, Stephan;
 Najibi, Asim; Grimme, Stefan. , 19 (48), (2017). 
 A look at the density functional theory zoo with the advanced GMTKN55 database
 for general main group thermochemistry, kinetics and noncovalent interactions.
 https://doi.org/10.1039/C7CP04913G

 Schuett, Ole; Messmer, Peter; Hutter, Juerg; VandeVondele, Joost. 
 Electronic Structure Calculations on Graphics Processing Units, John
 Wiley & Sons, Ltd, 173-190 (2016). 
 GPU-Accelerated Sparse Matrix-Matrix Multiplication for
 Linear Scaling Density Functional Theory.
 https://doi.org/10.1002/9781118670712.ch8

 Borstnik, U; VandeVondele, J; Weber, V; Hutter, J. 
 PARALLEL COMPUTING, 40 (5-6), 47-58 (2014). 
 Sparse matrix multiplication: The distributed block-compressed sparse
 row library.
 https://doi.org/10.1016/j.parco.2014.03.012

 Hutter, J; Iannuzzi, M; Schiffmann, F; VandeVondele, J. 
 WIREs Comput Mol Sci., 4 (1), 15-25 (2014). 
 CP2K: atomistic simulations of condensed matter systems.
 https://doi.org/10.1002/wcms.1159

 Marek, A; Blum, V; Johanni, R; Havu, V; Lang, B; Auckenthaler, T;
 Heinecke, A; Bungartz, H; Lederer, H. 
 Journal of Physics: Condensed Matter, 26 (21), (2014). 
 The ELPA library: scalable parallel eigenvalue solutions for
 electronic structure
 theory and computational science.
 https://doi.org/10.1088/0953-8984/26/21/213201

 Grimme, S; Ehrlich, S; Goerigk, L. 
 JOURNAL OF COMPUTATIONAL CHEMISTRY, 32, 1456 (2011). 
 Effect of the damping function in dispersion corrected density functional theory.
 https://doi.org/10.1002/jcc.21759

 Grimme, S; Antony, J; Ehrlich, S; Krieg, H. 
 JOURNAL OF CHEMICAL PHYSICS, 132 (15), 154104 (2010). 
 A consistent and accurate ab initio parametrization of density
 functional dispersion correction (DFT-D) for the 94 elements H-Pu.
 https://doi.org/10.1063/1.3382344

 VandeVondele, J; Hutter, J. 
 JOURNAL OF CHEMICAL PHYSICS, 127 (11), 114105 (2007). 
 Gaussian basis sets for accurate calculations on molecular systems in
 gas and condensed phases.
 https://doi.org/10.1063/1.2770708

 Krack, M. 
 THEORETICAL CHEMISTRY ACCOUNTS, 114 (1-3), 145-152 (2005). 
 Pseudopotentials for H to Kr optimized for gradient-corrected
 exchange-correlation functionals.
 https://doi.org/10.1007/s00214-005-0655-y

 VandeVondele, J; Krack, M; Mohamed, F; Parrinello, M; Chassaing, T;
 Hutter, J. COMPUTER PHYSICS COMMUNICATIONS, 167 (2), 103-128 (2005). 
 QUICKSTEP: Fast and accurate density functional calculations using a
 mixed Gaussian and plane waves approach.
 https://doi.org/10.1016/j.cpc.2004.12.014

 Frigo, M; Johnson, SG. 
 PROCEEDINGS OF THE IEEE, 93 (2), 216-231 (2005). 
 The design and implementation of FFTW3.
 https://doi.org/10.1109/JPROC.2004.840301

 Hartwigsen, C; Goedecker, S; Hutter, J. 
 PHYSICAL REVIEW B, 58 (7), 3641-3662 (1998). 
 Relativistic separable dual-space Gaussian pseudopotentials from H to Rn.
 https://doi.org/10.1103/PhysRevB.58.3641

 Zhang, YK; Yang, WT. 
 PHYSICAL REVIEW LETTERS, 80 (4), 890-890 (1998). 
 Comment on Generalized gradient approximation made simple.
 https://doi.org/10.1103/PhysRevLett.80.890

 Lippert, G; Hutter, J; Parrinello, M. 
 MOLECULAR PHYSICS, 92 (3), 477-487 (1997). 
 A hybrid Gaussian and plane wave density functional scheme.
 https://doi.org/10.1080/002689797170220

 Perdew, JP; Burke, K; Ernzerhof, M. 
 PHYSICAL REVIEW LETTERS, 77 (18), 3865-3868 (1996). 
 Generalized gradient approximation made simple.
 https://doi.org/10.1103/PhysRevLett.77.3865

 Goedecker, S; Teter, M; Hutter, J. 
 PHYSICAL REVIEW B, 54 (3), 1703-1710 (1996). 
 Separable dual-space Gaussian pseudopotentials.
 https://doi.org/10.1103/PhysRevB.54.1703


 -------------------------------------------------------------------------------
 -                                                                             -
 -                                T I M I N G                                  -
 -                                                                             -
 -------------------------------------------------------------------------------
 SUBROUTINE                       CALLS  ASD         SELF TIME        TOTAL TIME
                                MAXIMUM       AVERAGE  MAXIMUM  AVERAGE  MAXIMUM
 CP2K                                 1  1.0    0.109    0.122    3.935    3.940
 qs_energies                          1  2.0    0.006    0.010    3.255    3.264
 scf_env_do_scf                       1  3.0    0.000    0.002    2.258    2.263
 scf_env_do_scf_inner_loop            3  4.0    0.009    0.012    2.257    2.262
 qs_ks_update_qs_env                  3  5.0    0.000    0.000    1.069    1.074
 rebuild_ks_matrix                    3  6.0    0.003    0.004    1.067    1.069
 qs_ks_build_kohn_sham_matrix         3  7.0    0.006    0.008    1.065    1.068
 rs_pw_transfer                      36  9.2    0.001    0.001    0.989    1.028
 qs_rho_update_rho                    4  5.0    0.000    0.002    1.001    1.004
 calculate_rho_elec                   4  6.0    0.004    0.005    1.001    1.004
 density_rs2pw                        4  7.0    0.002    0.003    0.760    0.794
 init_scf_run                         1  3.0    0.002    0.003    0.692    0.696
 pw_transfer                         51  8.9    0.009    0.011    0.588    0.623
 fft_wrap_pw1pw2                     45  9.9    0.001    0.002    0.567    0.599
 sum_up_and_integrate                 3  8.0    0.005    0.007    0.570    0.573
 integrate_v_rspace                   3  9.0    0.000    0.001    0.565    0.568
 fft_wrap_pw1pw2_530                 17 10.2    0.047    0.057    0.513    0.549
 scf_env_initial_rho_setup            1  4.0    0.003    0.005    0.515    0.518
 potential_pw2rs                      3 10.0    0.000    0.000    0.514    0.517
 fft3d_ps                            45 11.9    0.213    0.236    0.443    0.471
 rs_pw_transfer_RS2PW_530             5  8.6    0.208    0.250    0.432    0.464
 mp_waitany                         330 11.1    0.339    0.438    0.339    0.438
 qs_scf_new_mos                       3  5.0    0.001    0.002    0.352    0.355
 qs_vxc_create                        3  8.0    0.003    0.004    0.332    0.345
 xc_vxc_pw_create                     3  9.0    0.010    0.011    0.330    0.342
 cp_fm_diag_elpa                      4  7.2    0.000    0.002    0.339    0.341
 qs_init_subsys                       1  2.0    0.008    0.015    0.332    0.339
 eigensolver                          3  6.0    0.001    0.002    0.327    0.328
 qs_energies_init_hamiltonians        1  3.0    0.005    0.008    0.290    0.295
 cp_fm_redistribute_end               4  8.2    0.254    0.291    0.255    0.291
 cp_fm_diag_elpa_base                 4  8.1    0.034    0.282    0.035    0.285
 rs_pw_transfer_PW2RS_530             3 12.0    0.139    0.156    0.257    0.271
 xc_rho_set_and_dset_create           3 10.0    0.005    0.008    0.236    0.262
 grid_collocate_task_list             4  7.0    0.224    0.241    0.224    0.241
 mp_alltoall_z22v                    45 13.9    0.181    0.239    0.181    0.239
 qs_env_update_s_mstruct              1  4.0    0.000    0.001    0.218    0.233
 calculate_rho_core                   1  5.0    0.007    0.011    0.192    0.206
 pw_nn_compose_r                     18 10.5    0.097    0.102    0.139    0.205
 calculate_first_density_matrix       1  5.0    0.003    0.005    0.180    0.182
 qs_dispersion_pairpot_init           1  3.0    0.010    0.132    0.157    0.180
 xc_functional_eval                   3 11.0    0.000    0.000    0.150    0.176
 pbe_lda_eval                         3 12.0    0.150    0.176    0.150    0.176
 yz_to_x                             24 12.3    0.019    0.028    0.113    0.156
 mp_waitall_1                      3287 11.5    0.129    0.154    0.129    0.154
 cp_fm_cholesky_decompose             1  4.0    0.149    0.154    0.149    0.154
 qs_env_setup                         1  3.0    0.003    0.006    0.134    0.150
 mp_bcast_dv                          7  7.9    0.136    0.140    0.136    0.140
 qs_env_rebuild_pw_env                2  3.5    0.002    0.004    0.124    0.139
 create_qs_kind_set                   1  2.0    0.000    0.001    0.121    0.136
 read_qs_kind                         3  3.0    0.044    0.054    0.121    0.135
 x_to_yz                             21 13.5    0.025    0.029    0.112    0.133
 pw_env_rebuild                       1  5.0    0.006    0.009    0.120    0.133
 mp_sendrecv_dm2                     36 11.5    0.042    0.117    0.042    0.117
 gspace_mixing                        2  5.0    0.002    0.004    0.112    0.115
 mp_bcast_i                          86  6.0    0.075    0.112    0.075    0.112
 parser_read_line                  9939  4.0    0.004    0.004    0.092    0.108
 make_basis_lowdin                    1  6.0    0.003    0.004    0.104    0.107
 parser_read_line_low                15  5.1    0.006    0.056    0.088    0.105
 pw_grid_setup                        5  6.0    0.001    0.003    0.098    0.099
 pw_grid_setup_internal               5  7.0    0.007    0.010    0.097    0.099
 broadcast_input_information         15  6.1    0.000    0.000    0.082    0.099
 rs_pw_transfer_PW2RS_180             3 12.0    0.022    0.025    0.069    0.095
 mp_sum_d                           410  1.5    0.042    0.081    0.042    0.081
 -------------------------------------------------------------------------------

 The number of warnings for this run is : 1
 
 -------------------------------------------------------------------------------
  **** **** ******  **  PROGRAM ENDED AT                 2025-10-22 11:41:22.098
 ***** ** ***  *** **   PROGRAM RAN ON                                 nid002114
 **    ****   ******    PROGRAM RAN BY                                xr223_ukcp
 ***** **    ** ** **   PROGRAM PROCESS ID                                255063
  **** **  *******  **  PROGRAM STOPPED IN /mnt/lustre/a2fs-work3/work/e89/e89/x
                                           r223_ukcp/BINDING-ENERGY-DARREN/bindi
                                           ng-energy/1-leg/s+1.00/d+4.25
