LAMMPS data file via write_data, version 4 Feb 2025, timestep = 300000, units = metal

1560 atoms
2 atom types

0.9144406638099613 26.01255933619086 xlo xhi
0.9144406638099613 26.01255933619086 ylo yhi
0.9144406638099613 26.01255933619086 zlo zhi

Masses

1 1.007999999740698
2 15.99899999588435

Atoms # full

49 0 2 0 4.3507059542953925 1.427226186845811 1.1254352723035022 1 0 0
798 0 1 0 5.439457059820102 3.36680566077351 0.9689611933142267 1 0 1
89 0 1 0 2.5411375115768875 1.11955615879892 1.2217897310181343 1 0 1
51 0 1 0 4.4834751274305304 1.0424405719794096 1.9809942097647237 1 0 0
582 0 1 0 2.6255406471536658 3.703184484373523 1.6833409574689973 1 0 1
580 0 2 0 2.41636501038978 3.914776033300336 2.6227626286715813 1 0 1
1269 0 1 0 2.7642324237870235 2.7083617937126987 3.673936922489915 2 1 0
797 0 1 0 6.764508809043059 3.8753309903750117 1.6822035552803623 1 0 1
786 0 1 0 1.6999898088718663 2.412213476696367 6.332525817491456 1 0 0
1499 0 1 0 5.5900388422705705 3.3514753092673484 5.736575351199412 1 1 1
1267 0 2 0 2.8394519158767544 2.0698294082340074 4.465820038524222 2 1 0
1268 0 1 0 3.782129121991095 1.7576920003333294 4.501222774487408 2 1 1
1556 0 1 0 6.648255716761399 0.9683772681843065 5.250778578555493 1 1 0
1555 0 2 0 5.7421832713808225 1.3931340714876874 5.262964721240304 1 1 0
1557 0 1 0 5.3447945449242455 1.0920330878238715 6.113938644269902 1 1 0
784 0 2 0 1.4905436637760003 2.769951379944401 7.21204537653093 1 0 0
81 0 1 0 6.0345926726355374 3.0124677987456825 9.584865284188526 0 0 0
472 0 2 0 4.630533588943612 2.0844704349101217 9.51420051179421 0 1 0
785 0 1 0 2.30245654517371 3.1951607781685394 7.596490495510891 1 0 0
473 0 1 0 3.898931921937836 2.53120594728016 9.953088820048764 0 1 0
474 0 1 0 4.701251391480858 1.253117608744153 10.098036500407144 0 1 0
79 0 2 0 6.958816823140298 3.439417155236901 9.521287281215837 0 0 0
890 0 1 0 4.353963853464367 1.2636730327864725 8.033979147989717 2 0 1
36 0 1 0 1.9434591815445086 2.515692850381581 10.85225396477028 1 1 0
35 0 1 0 2.82102910299338 3.445969265608188 11.813005621066479 1 1 0
34 0 2 0 2.579063227126415 3.3038220642751814 10.874845307667218 1 1 0
491 0 1 0 5.910730805969456 3.1415087199283382 14.455174479413795 1 1 0
665 0 1 0 5.698067272352179 1.4480425828909118 16.38355058561688 0 2 0
593 0 1 0 2.378400710644369 1.7379152683087995 13.87748465184033 1 1 0
664 0 2 0 6.319707972632504 1.8183035007484074 15.664577645195829 0 2 0
490 0 2 0 5.533323573509565 3.9093804887954846 13.997889353376559 0 1 0
666 0 1 0 6.725577842959713 1.0099853582299967 15.207572705290069 0 2 0
667 0 2 0 2.548939799129684 3.804629925413596 13.550445782818663 1 1 0
668 0 1 0 3.4289980773988264 3.9872051288657655 14.058504402432053 1 1 0
1510 0 2 0 4.37834028788815 1.2520033764351302 17.74231996810525 1 1 0
1254 0 1 0 2.823513975432969 2.286020598427632 17.802771187191688 2 1 0
1252 0 2 0 1.8962399613360028 2.436233349360169 18.100264884730485 2 1 0
1512 0 1 0 4.52877569760194 1.1102179851382568 18.713306505778597 1 1 0
1253 0 1 0 1.445679263958954 2.8342512818968406 17.29733481892989 2 1 0
245 0 1 0 1.7853415592011812 3.5276075222762513 19.528730480479656 1 0 1
1184 0 1 0 6.758287676778402 3.3777409093137405 18.995696970406463 1 1 0
200 0 1 0 7.070410396802084 1.1841790498218814 18.41844820222282 0 0 0
1258 0 2 0 5.145665412507951 3.957923377216665 18.423462796637455 2 1 0
366 0 1 0 5.874437257615081 3.2575035803997707 22.136491479772147 1 0 0
483 0 1 0 3.7951556539548594 2.1635559095993724 21.61990855899466 1 1 0
481 0 2 0 3.9397458490055417 2.832282742808476 22.347895939891515 1 1 0
364 0 2 0 6.852061357443869 3.1296202094288676 22.180971755706487 1 0 0
482 0 1 0 3.4434336998774135 3.6852765358468207 22.097950955322087 1 1 0
365 0 1 0 6.9779746972821854 2.1659922028231664 22.333217653874044 1 0 0
791 0 1 0 3.257923768591361 3.1964329208013065 24.213044476548305 1 0 -1
790 0 2 0 2.7933079925104622 3.8088560445508732 24.80965913918598 1 0 -1
641 0 1 0 5.144885843589205 5.027004149424152 2.480583320223217 0 1 1
640 0 2 0 4.549393809584196 5.524462241296275 3.1182334460714722 0 1 1
581 0 1 0 3.0654379717774085 4.690137014877773 2.7706359531427984 1 0 1
188 0 1 0 4.810142050317122 7.173784467673254 2.486445918505144 1 1 1
796 0 2 0 5.933404612722153 4.241014327175882 1.1272635877686117 1 0 1
388 0 2 0 2.2541163056460176 5.219165270282213 5.768479265165993 0 0 0
390 0 1 0 1.973396864246589 5.320200129460354 6.717677338542354 0 0 0
389 0 1 0 3.10982413076455 4.788335071589263 5.869823314709872 0 0 0
1500 0 1 0 6.188289305438848 4.667179065437372 6.117970455300518 1 1 1
1498 0 2 0 5.366296763418374 4.290145830986779 5.760216096176671 1 1 1
1049 0 1 0 1.885442625061757 6.982819508940765 5.069604966213702 1 1 1
642 0 1 0 4.6782168617738 5.186472074417629 4.053154116917428 0 1 1
1119 0 1 0 4.393606601825587 4.849019142036757 7.998669389935656 1 0 0
1117 0 2 0 3.6355921613973696 5.093111384636479 8.559077160118449 1 0 0
1118 0 1 0 3.6161022841787744 4.584486171876079 9.439717028241457 1 0 0
1178 0 1 0 1.3822757553676905 6.71795197428719 9.244455943335291 1 1 0
1142 0 1 0 6.658631617447168 4.527438068811088 10.956789178816292 1 0 0
1141 0 2 0 6.3805583923913405 5.173635015458977 11.653665976671528 1 0 0
41 0 1 0 5.0349870413925935 6.603740680435831 11.867576310871081 0 0 0
40 0 2 0 4.17846727046629 7.076531878236557 11.773779693316474 0 0 0
492 0 1 0 6.058207540940211 4.167525537957666 13.250670263546532 0 1 0
1143 0 1 0 7.179154510745413 5.763342674062295 11.692566410550064 1 0 0
961 0 2 0 5.857635232975212 6.174195116637394 16.000933673769932 1 0 0
298 0 2 0 3.2522758368439733 6.5965168357194 14.69564869879312 1 0 0
962 0 1 0 6.019232015046456 5.303971539685368 15.514958688842848 1 0 0
963 0 1 0 5.046605501969026 6.594138312075667 15.648697441991345 1 0 0
299 0 1 0 3.230160767529368 6.308950476005778 13.750168907582676 1 0 0
669 0 1 0 1.8726228966602072 4.333502796600936 13.956651061773346 1 1 0
300 0 1 0 2.317339043688732 6.536676013373259 15.001847014751972 1 0 0
373 0 2 0 3.271536749806134 6.175554514158979 19.26520147148522 1 0 1
375 0 1 0 2.881616181039686 6.705355395581751 18.537028518305 1 0 0
1259 0 1 0 4.510012209439812 4.526422396669544 18.8638890021598 2 1 0
374 0 1 0 2.722943348821849 5.421547089363496 19.505411420510512 1 0 1
1260 0 1 0 5.096788588177877 4.24273536732082 17.476272915052622 2 1 0
751 0 2 0 3.9850080234085086 5.9155146421983105 22.02758536460393 1 0 0
986 0 1 0 1.2954187895946472 5.0669843963341545 22.371342224352876 1 0 0
753 0 1 0 3.604151831586906 6.069046433620636 21.133492700085743 1 0 0
244 0 2 0 1.7325148258850425 4.213034655791745 20.19347647313189 1 0 1
752 0 1 0 3.199130234962776 6.0016692025457825 22.650284002193334 1 0 0
53 0 1 0 5.558245959232496 6.8522800265820285 22.679749035650975 0 0 0
246 0 1 0 0.9321243344871135 4.75882474928226 20.050889332135178 1 1 1
985 0 2 0 1.3248545184628264 5.7819259430600995 22.998743220246094 1 0 0
1453 0 2 0 3.671708453489442 6.61291651389428 24.809611435826397 1 1 0
54 0 1 0 6.791508603042878 6.471657526263955 23.550619120043773 0 0 0
792 0 1 0 3.1768619368694955 4.695791657392651 24.623906110893184 1 0 -1
1454 0 1 0 4.576643567101728 6.8273538503205415 24.73793621982239 1 1 0
933 0 1 0 7.066560592456529 4.618904886749627 24.59675768385381 1 0 0
187 0 2 0 5.1537852822292445 8.0419561775575 2.2136496372829497 1 1 1
1554 0 1 0 1.3139119425111663 9.851780753977879 2.5451616725681014 2 0 1
189 0 1 0 4.389841301402313 8.532329202155164 1.8908585949953869 1 1 1
915 0 1 0 6.814451195688488 9.057346360353865 1.7227549281755024 1 0 0
127 0 2 0 1.3597377067284904 7.800527199004804 2.0740703761686605 1 0 1
128 0 1 0 1.8976364888871096 7.32881410916138 1.4678114245664815 1 0 1
1050 0 1 0 1.2173398225837353 7.8802019760518265 3.987768036784865 1 1 1
336 0 1 0 3.9421899824373043 9.076456179580894 6.6638842463535255 0 0 1
334 0 2 0 4.15936062075193 8.712545067886929 5.782578777041908 0 0 1
335 0 1 0 3.360883816543412 8.7404630268343 5.239098344977603 0 0 1
1450 0 2 0 6.726723515946943 7.872569029414474 5.886097974813842 1 1 1
1048 0 2 0 1.5746440913615287 7.940321610080499 4.903666779862414 1 1 1
1451 0 1 0 5.7140666938819455 7.840139477282083 5.757924798215598 1 1 1
1452 0 1 0 6.913987827339047 7.289488220024019 6.613496149183282 1 1 1
672 0 1 0 6.130912711958961 7.5203987801865235 9.676106890136165 2 1 1
243 0 1 0 2.5217719804947047 8.386592516702436 9.131948534590302 0 1 0
982 0 2 0 3.7583515135398757 9.49873665234943 8.609528031286919 1 0 0
984 0 1 0 4.609664540444914 8.978569336225435 8.763030407487298 1 0 0
670 0 2 0 6.3032062432368265 8.430409943633412 9.380841357221323 1 1 1
241 0 2 0 2.0927183432003087 8.029367453036903 9.983127786587627 0 1 0
983 0 1 0 3.4588627209503864 10.121957309993826 9.379575685799914 1 0 0
42 0 1 0 4.287571486570749 7.783041214781121 12.491532090848198 0 0 0
242 0 1 0 2.9075510183102513 7.704916790735656 10.54371801593835 0 1 0
326 0 1 0 5.896357215420426 9.525710853915724 11.076294610612736 1 -1 0
1038 0 1 0 3.1142137875735543 10.16581380018276 15.060182438773618 1 0 0
769 0 2 0 6.652812456373068 10.069124805047128 16.214382740348682 0 1 0
230 0 1 0 5.431810380257587 9.024096652766717 14.650970736339813 1 0 0
229 0 2 0 4.888073507094679 9.000903586479428 13.839576941901864 1 0 0
231 0 1 0 5.002424667166846 9.898211699579821 13.488201682742066 1 1 0
150 0 1 0 5.860307202137923 8.384665879263537 18.9402277492276 1 0 0
148 0 2 0 4.964799544095249 8.577356399957445 19.43914340874256 1 0 0
770 0 1 0 7.188069958912762 9.585622760835124 16.78040411445216 0 1 0
149 0 1 0 4.452420478128448 7.7635792254244045 19.354388321291342 1 0 0
370 0 2 0 2.4536220668558224 8.210580997700964 17.3900530162607 0 0 1
372 0 1 0 2.5132992025378385 9.007583163879229 17.915872906126836 0 0 1
213 0 1 0 1.0398255151394957 9.8185047062881 19.433242844608966 1 -1 0
371 0 1 0 1.7569364603852842 8.334368799768992 16.685512849479576 0 0 1
586 0 2 0 4.920589694437429 9.974025374264263 21.83833483627612 0 1 -1
1538 0 1 0 1.960702291526816 8.6672308975366 22.57579628779036 1 1 0
588 0 1 0 5.062198076460042 9.415018131832008 21.048910368066423 0 1 -1
107 0 1 0 5.130449512604808 10.01335443935701 24.031921853764395 0 0 0
52 0 2 0 6.295453672828134 7.251849151267945 23.198789873591235 0 0 0
106 0 2 0 5.288752712782651 9.914880676940376 24.99870562905732 0 0 0
1537 0 2 0 2.647177150159215 8.59945497986267 23.20975910826477 1 1 0
108 0 1 0 5.870390802051989 9.172591775239034 24.987189634466354 0 0 0
1455 0 1 0 3.2172540889900834 7.364021945826398 24.35456803653137 1 1 0
936 0 1 0 1.9738611992582444 10.294284508367536 24.02793973715291 1 0 0
1539 0 1 0 3.414658802453401 9.229992280235699 22.982634932979916 1 1 0
31 0 2 0 3.8178921648649453 11.295885523471075 3.6310428362601646 0 1 0
33 0 1 0 4.458826403818728 11.798928667045715 3.088829925718118 0 0 0
1553 0 1 0 2.418096775616954 10.841890634072527 2.773071739248304 2 0 1
1552 0 2 0 1.4539387198792897 10.78277385720413 2.5350655134900086 2 0 1
734 0 1 0 6.221713213530658 12.90023248667698 1.7491357456092786 1 0 0
399 0 1 0 2.464248619447837 12.922415563455985 3.775313019405213 0 0 1
733 0 2 0 5.374158584573971 13.2599153895615 2.1870739982918694 1 0 0
32 0 1 0 4.280937256136069 10.512333816801243 3.9867643096182914 0 0 0
1301 0 1 0 6.902179548794272 12.130986895514924 4.019322421855099 1 1 1
398 0 1 0 1.3942336515744127 13.322466714705108 4.7527782290255285 0 0 1
26 0 1 0 1.089440829383939 11.929362892003196 6.61662444285199 1 0 1
1085 0 1 0 1.2658799495260353 11.025055192930246 8.832043421602847 2 0 0
1397 0 1 0 7.063330330490505 12.529836596808881 9.003110338283497 1 0 0
851 0 1 0 1.0088327280007385 13.309671463758168 10.27273878022323 1 0 0
759 0 1 0 1.773158328124746 11.152285936375996 12.335481530567145 1 0 0
547 0 2 0 3.5472974393771013 12.495810572638666 13.251237852877038 1 1 1
776 0 1 0 3.9328910084852224 11.072986768363409 11.28388566226809 1 0 0
1546 0 2 0 6.304831660222452 13.27115280466162 13.131014701100323 2 0 0
327 0 1 0 6.315279648004205 10.929210408155175 10.82591984307132 1 -1 0
325 0 2 0 5.886652149256032 10.42395819650952 11.515540601523352 1 -1 0
1548 0 1 0 5.318922943665593 13.131192913610308 13.227350960450881 2 0 0
777 0 1 0 2.977879093138419 11.960537578444047 10.559677788213458 1 0 0
775 0 2 0 3.0443475053641396 11.044522529184892 10.766376552739862 1 0 0
757 0 2 0 0.9491736605617523 10.804236058062909 12.686533119795694 1 0 0
1154 0 1 0 7.12919263009041 10.534131230550956 13.372698467464446 1 0 0
1036 0 2 0 2.720717627163819 10.99002779296161 15.434072455167435 1 0 0
1037 0 1 0 3.2644571856863998 11.076091202176872 16.2586487882796 1 0 0
549 0 1 0 3.351455573608165 11.925491548079384 14.039232872073859 1 1 1
1155 0 1 0 7.161595511332858 12.072203391240784 13.840793305236081 1 0 -1
548 0 1 0 3.295127032524542 13.424766078193205 13.630964996730642 1 1 1
1214 0 1 0 5.234243791844405 10.591875237731411 17.220488138107548 1 1 0
212 0 1 0 1.1048352404932484 11.143753540730906 18.743662767057028 1 -1 0
1440 0 1 0 4.738443366157923 12.591841091148773 18.212475380129007 1 1 0
211 0 2 0 1.7478095437726036 10.43108653708092 19.07663532360097 1 -1 0
1213 0 2 0 4.435821083551248 10.967595242837113 17.6325714830875 1 1 0
1439 0 1 0 5.902762700991545 13.361433404110437 18.888691821787745 1 1 0
1215 0 1 0 4.157082766557821 10.42692886194048 18.388165773174855 1 1 0
800 0 1 0 6.243679879978328 11.197812892529205 22.670042991471536 1 -1 0
587 0 1 0 4.48908424305006 10.808529804354464 21.54009414203579 0 1 -1
1410 0 1 0 4.428808669042616 13.086848065893681 20.649473125349854 1 1 0
1409 0 1 0 4.5813199752314295 12.925086428012262 22.27046530837128 1 1 0
1408 0 2 0 4.1699998975574175 12.572544976903936 21.451898411456487 1 1 0
1317 0 1 0 2.3041850976266165 12.81271139591547 22.00816944620368 1 1 0
1315 0 2 0 1.3000792285503977 12.747729724630917 21.87274752660686 1 1 0
799 0 2 0 7.021725592482746 11.900796096510716 22.771210041266272 1 -1 0
1316 0 1 0 1.1888327359086985 12.127293709362172 21.11598519864026 1 1 0
817 0 2 0 3.776327239374626 12.945939765661777 24.25111190047258 1 0 -1
818 0 1 0 3.041142670559713 12.380392510910736 24.51412393127784 1 0 -1
819 0 1 0 4.312637604401764 12.93955446036504 25.113705227995244 1 0 -1
935 0 1 0 1.4494723227225776 10.792653762295133 25.44036672400519 1 0 0
934 0 2 0 1.6632469163622208 11.086888261873119 24.568401354158148 1 0 0
735 0 1 0 5.677265917220888 13.635574863459105 3.0072445862765025 1 0 0
116 0 1 0 1.7465929143193986 15.706334386627065 2.852399196889931 1 0 0
117 0 1 0 2.3820414223212936 15.905370126177655 1.4087818961348244 1 0 0
115 0 2 0 1.7310185701229477 16.279093143922143 2.055182341694568 1 0 0
710 0 1 0 5.852112016721331 15.059417729077376 1.3176277028142143 0 0 0
685 0 2 0 3.8985808283460264 15.120899289419313 5.475863209367544 0 0 0
687 0 1 0 3.102626666633182 14.674669111522922 5.0870590313421875 0 0 0
113 0 1 0 5.636815345793119 14.478395422327363 5.073530757592062 0 -1 0
686 0 1 0 3.581072038751359 15.269542104692498 6.3911046304408625 0 0 0
112 0 2 0 6.487942419757665 14.265227770338075 4.691814585569467 0 -1 0
114 0 1 0 6.943112136176657 15.127050617473875 4.4729981383993485 0 -1 0
397 0 2 0 2.070256956299959 13.734449495562329 4.091257706528524 0 0 1
1041 0 1 0 2.727929219930478 14.656548566812603 8.954008488746995 2 -1 1
1040 0 1 0 2.5930061588600806 16.092060365833408 8.282172582196445 2 -1 1
1039 0 2 0 3.2470909664641634 15.383367813030242 8.499582544829572 2 -1 0
436 0 2 0 5.956775525789172 14.565759033898273 9.83224215059277 1 0 0
437 0 1 0 5.199765640914932 14.793024159964773 9.224856360326282 1 0 0
438 0 1 0 5.572395336120384 13.805549167469323 10.287056785448195 1 0 0
852 0 1 0 1.952073728166345 14.353574979562227 10.993636647945122 1 0 0
13 0 2 0 2.009147371037706 15.844264465916957 11.661868915910288 1 0 0
15 0 1 0 2.0571662129804777 15.930144941146157 12.658194719940019 1 0 0
14 0 1 0 1.3597906763539584 16.498409105131426 11.407712544590888 1 0 0
732 0 1 0 3.7148651103417785 16.589225618601443 10.828784497152867 1 0 0
731 0 1 0 5.159507541205989 16.46230268013092 10.685681986109955 1 0 0
850 0 2 0 1.9744065434113067 13.5731901893901 10.326569192040127 1 0 0
1027 0 2 0 4.986029002496543 15.172718728078303 16.51403325707559 1 0 0
1336 0 2 0 7.036695939321035 15.524648470220782 14.595227582991553 1 0 0
680 0 1 0 3.4901708599342056 14.933956463238083 15.13244864284845 1 0 0
1338 0 1 0 6.5443928460430465 15.512665999005344 15.436795737186468 1 0 0
679 0 2 0 2.9550064203881115 14.835874275193511 14.352797641052529 1 0 0
681 0 1 0 2.1916036513784953 15.317412510597746 14.608952064890149 1 0 0
1547 0 1 0 6.5709746571850465 14.003824777621912 13.700812288567468 2 0 0
286 0 2 0 1.2655922869214875 15.107572014329717 16.563437211654417 1 0 0
1029 0 1 0 5.082780569871219 14.658594761753637 17.369782129395908 1 0 0
1028 0 1 0 4.99616926110421 16.13367492335384 16.789262746687633 1 0 0
1438 0 2 0 4.973391193793786 13.466446417794456 18.649166910165118 1 1 0
288 0 1 0 1.2882343224674693 15.467689685374873 17.470237927693095 1 0 0
599 0 1 0 3.847530936372168 16.09868875599627 22.103973132487635 1 0 -1
941 0 1 0 5.645781390659702 16.579667377805464 20.525302434169976 1 0 -1
940 0 2 0 6.415359736971319 16.34613772627194 19.939890410557457 1 0 -1
1327 0 2 0 3.1976320587751514 15.709416069850437 24.348149042480035 2 0 0
1329 0 1 0 3.9791482192610075 16.09864581116663 24.718260940937366 2 0 0
1328 0 1 0 3.307959428829358 14.70716170769199 24.229368713398035 2 0 0
711 0 1 0 6.644505524381069 16.307148969969482 25.940904544992204 0 0 -1
572 0 1 0 6.575947006904774 13.73886391011046 23.647599124341152 0 0 0
573 0 1 0 6.4209132770498005 15.179255937779923 24.226396742459848 0 0 0
709 0 2 0 5.883612249821833 15.768641662678315 25.684941136996255 0 0 -1
571 0 2 0 6.528825054400256 14.68172690602518 23.378289970550906 0 0 0
369 0 1 0 1.5698879199755664 16.46753422942026 24.24259134040171 1 0 0
881 0 1 0 0.9842432820383689 18.099789731046155 2.4276874009435803 1 -1 1
142 0 2 0 5.604004724411349 19.35519277437299 0.9658558361826629 1 1 0
255 0 1 0 4.421005815308308 18.000468280167066 3.7520178147170387 1 0 1
1375 0 2 0 2.8992103758329324 19.277597172032873 6.631386650341854 1 0 0
253 0 2 0 4.419930017724361 17.996220582163303 4.725226132641129 1 0 1
1140 0 1 0 6.035241414647094 19.045108644115235 5.06605206849158 1 0 1
254 0 1 0 4.301578987028588 17.056555921814642 5.0185933543756445 1 0 1
1376 0 1 0 3.4996532519297388 19.095173673332525 5.866735019646557 1 0 0
1377 0 1 0 2.521212932266279 18.338399600300633 6.916589130071246 1 0 0
232 0 2 0 1.0445437351920814 17.2654506384556 7.65263299732261 1 0 0
1180 0 2 0 4.895448511039776 18.266962497107208 8.324910472582138 2 0 0
1182 0 1 0 4.772173258273797 17.94813679195739 9.240594653747168 2 0 0
1181 0 1 0 4.086222232704543 18.722039721595998 7.996930210281134 2 0 0
730 0 2 0 4.513274899838968 17.05202253185356 11.072568563757933 1 0 0
614 0 1 0 2.7948171997546374 19.465192854716033 12.150299735685056 1 0 0
603 0 1 0 6.62957638320165 18.796689924086905 10.647349974724172 0 1 1
699 0 1 0 5.2204107934831265 17.68016758905996 12.924523720847985 0 0 1
613 0 2 0 1.9081808139875753 19.21823758638243 12.521052896397736 1 0 0
615 0 1 0 2.074040630502306 18.942383282533484 13.415424868586674 1 0 0
1404 0 1 0 2.895231425445364 18.009047787253262 15.266398530341622 1 0 0
698 0 1 0 6.335800687142865 17.27554357020759 13.971167380158596 0 0 1
1402 0 2 0 2.0514059671226472 18.38359575486795 15.04786083831883 1 0 0
1484 0 1 0 6.4766837555473105 19.44209528732168 14.834444225774854 1 0 1
1403 0 1 0 1.4616201386527936 18.023486749231257 15.757152409701268 1 0 0
697 0 2 0 5.809996652742738 18.02852576240466 13.61812042822388 0 0 1
541 0 2 0 4.354484238672175 17.908019949554 16.997847066321174 1 1 0
543 0 1 0 3.9387164485096395 18.165173493746213 17.87140285182219 1 1 0
542 0 1 0 4.946954131317438 18.659297985978803 16.658280065016683 1 1 0
942 0 1 0 6.102872834804028 16.795837292445153 19.17924778941904 1 0 -1
77 0 1 0 7.098242485338558 18.972565198904576 18.153222922259264 0 0 0
1393 0 2 0 2.9203263191706585 18.34322419715432 19.71390772785328 1 1 0
1395 0 1 0 1.9469102107518483 18.43806413383214 19.73282971631143 1 1 0
598 0 2 0 4.193641542833471 16.773666835995368 21.49236122895999 1 0 -1
600 0 1 0 3.517251860419289 16.894697649683685 20.78232696527383 1 0 -1
1394 0 1 0 3.2347485513768404 19.150200732150672 20.14207971521896 1 1 0
972 0 1 0 5.059415675812818 17.72202798911045 22.647887919855165 1 0 -1
122 0 1 0 3.9435235025316477 19.129871560091193 23.467298808373492 0 -1 0
970 0 2 0 5.261884928308253 17.956360345139164 23.578880518831575 1 0 -1
971 0 1 0 6.232840962053785 18.326630505075755 23.642460035594237 1 0 -1
144 0 1 0 5.192676103186425 18.68003308061014 25.527303861756483 1 1 -1
43 0 2 0 3.05640524033655 20.45419081955071 2.393930286553553 0 -1 1
264 0 1 0 6.467447286294678 22.448171632531388 1.7452434432113622 1 0 0
695 0 1 0 2.0807325232901706 21.65834075499871 2.8949956752556094 1 1 1
263 0 1 0 4.909148602868233 22.38119174332852 1.7128078800036093 1 0 0
44 0 1 0 3.4280195935001108 20.436046518199237 1.46684802918209 0 -1 1
262 0 2 0 5.687722154544562 22.5147290358347 2.326017131757166 1 0 0
694 0 2 0 1.5331024317747413 22.45380728775368 3.2659455600396807 1 1 1
45 0 1 0 2.2912632248734903 19.800404022676833 2.333131775823528 0 -1 1
209 0 1 0 5.083936367452542 21.54771572558034 5.151431236119839 1 0 0
1138 0 2 0 6.337902918001959 19.900364869058837 5.457053108235647 1 0 1
208 0 2 0 4.448021754564211 22.355775809522875 5.3172582898449745 1 0 0
210 0 1 0 4.105108122187862 22.432587173171072 4.340905901028798 1 0 0
60 0 1 0 1.6275956944398369 19.897408724073443 5.701144317415228 1 -2 0
696 0 1 0 1.3672094622536737 22.093893469090528 4.152347182488443 1 1 1
168 0 1 0 3.0704827582523415 22.81438142423194 6.098186820665557 1 0 0
1139 0 1 0 6.769959046673284 19.750927800677307 6.325289308637069 1 0 1
59 0 1 0 1.0043715059009806 19.938068524202826 4.282592588270055 1 -2 0
630 0 1 0 6.622499146442524 21.809126789285234 8.176880455828417 1 0 1
1430 0 1 0 1.7982585098091284 20.32782741165025 8.350891336823103 1 0 1
1429 0 2 0 1.5694189889193302 21.253841292014908 8.50122530122307 1 0 0
628 0 2 0 6.434061669301622 20.896196306365145 8.45120869717168 1 0 1
629 0 1 0 5.636523625656191 20.62659490860745 7.956724499691698 1 0 1
306 0 1 0 2.5913215127246847 22.347157654386294 9.661403299152095 1 -1 0
602 0 1 0 7.171821499530783 19.78911512470925 9.674493561608465 0 1 1
167 0 1 0 2.3615727479207207 22.78531174652243 7.491718058839185 1 0 0
1559 0 1 0 5.325301991518332 21.501732254832294 12.00351948305455 2 0 0
1560 0 1 0 4.192823991287561 21.466809185119107 10.907887088052467 2 0 0
1558 0 2 0 4.575100336198973 20.951326386021705 11.664494120118786 2 0 0
271 0 2 0 6.5193783993240615 22.151637960427145 13.323930936449798 1 0 0
1043 0 1 0 1.1799786443825138 22.63932736742082 13.079188071472652 1 0 0
975 0 1 0 3.705064938689426 21.527352122870532 13.127316354154113 1 0 0
974 0 1 0 2.65540832760458 21.656682559070532 14.272006807395659 1 0 0
973 0 2 0 3.4789176221419336 22.04695260571787 13.949782730474407 1 0 0
272 0 1 0 6.345867533747122 21.884575889686918 14.213198098351945 1 0 0
1314 0 1 0 4.423505791329127 21.47080919788053 15.724127019507973 1 1 0
1483 0 2 0 6.554036868309256 20.040648758393278 15.551173498724014 1 0 1
950 0 1 0 1.1667186526686832 20.498179456602994 15.344118468696212 2 -1 0
949 0 2 0 0.995377187243853 21.34274557341284 14.885237540162601 2 -1 0
1031 0 1 0 6.658138505201856 22.596966359112603 16.56009658439154 1 -1 -1
649 0 2 0 5.813576203893631 20.591144559716774 18.892940692118838 1 0 0
651 0 1 0 5.151617990991235 20.87055017501876 18.257394819204144 1 0 1
1174 0 2 0 1.5306635897143044 21.412464874967217 18.103322300820484 2 0 0
1175 0 1 0 1.8784735027432498 21.908301002567903 18.94735787117582 2 0 0
1312 0 2 0 4.375008790469207 21.52169204097529 16.720751123881794 1 1 0
1313 0 1 0 3.6011502301104534 22.10489292133426 16.916012037527643 1 1 0
289 0 2 0 2.2488533949562437 22.261683660097624 20.99600837280697 1 0 0
809 0 1 0 3.440839074765808 21.04217899959524 20.97026471816204 1 -1 -1
808 0 2 0 4.176981317549025 20.44454261490232 21.110473507996566 1 -1 -1
291 0 1 0 1.4734764824783388 22.565112453879053 21.489360882873296 1 0 0
810 0 1 0 4.068681839717442 20.28215508466356 22.07255307695401 1 -1 -1
650 0 1 0 5.423915741848434 20.632878647061222 19.77806618016206 1 0 1
643 0 2 0 3.772357451424193 22.68326091695612 24.253702677832806 1 0 0
645 0 1 0 3.787049700377706 21.696147514543956 24.099821856575613 1 0 0
376 0 2 0 6.907549658031124 21.48826293993487 24.39451948578872 0 0 -1
121 0 2 0 3.4021920327310307 19.967439417705158 23.649139010287115 0 -1 0
143 0 1 0 6.112138490224089 19.955533821010704 25.41461436235002 1 1 -1
378 0 1 0 6.970139923152528 21.216166149731723 23.475794213217963 0 0 -1
123 0 1 0 2.4620769183248474 19.812003873129914 23.460656970703486 0 -1 0
780 0 1 0 5.216384242078092 24.19843504670957 3.1566683936178306 1 -1 1
778 0 2 0 4.766290225989892 25.06370921291484 3.2486737626713467 1 -1 1
90 0 1 0 1.3994806802070094 25.80223304976182 2.2740755738761234 1 -1 1
552 0 1 0 1.4800504402860293 24.142397560826677 3.77335131656917 1 0 0
88 0 2 0 1.5614448343861116 25.97921495326667 1.334770796822915 1 -1 1
166 0 2 0 2.45876837070714 23.34738102734016 6.6397135017672735 1 0 0
689 0 1 0 0.9835758252174877 24.655855755231386 6.957971183864784 0 0 1
551 0 1 0 1.8565800338261922 25.51162713459662 4.293751553126031 1 0 0
891 0 1 0 3.7010331257844227 25.167841051872223 7.078627654415569 2 -1 1
550 0 2 0 1.1033089961574787 24.97917455872331 4.058627682945983 1 0 0
779 0 1 0 5.181714794900686 25.41580482673636 4.056788270405814 1 -1 1
889 0 2 0 4.537096863144107 25.537009476009146 7.477511022105872 2 -1 1
1449 0 1 0 5.891833664097178 23.8614708162244 7.189341602157375 1 0 0
1447 0 2 0 6.746083805906414 23.58752016842202 7.629439771889176 1 0 0
304 0 2 0 2.8289157677177266 23.154606711719214 10.122308308393276 1 -1 0
1448 0 1 0 6.761601660699583 24.20971468959412 8.393075027397645 1 0 0
1249 0 2 0 4.653278191231398 25.090981426228502 11.039339374218102 1 0 0
1098 0 1 0 1.303807527976378 25.50484298462682 11.755936294968528 1 -1 0
1250 0 1 0 4.822673077982517 24.942698400249693 12.026182454376665 1 0 0
1042 0 2 0 0.9999857904525918 23.253731334284296 12.308337786687101 1 0 0
1251 0 1 0 3.9616555161478257 24.469153378319 10.795711218405197 1 0 0
1496 0 1 0 6.3926230492543255 24.352316808011476 10.564155302150997 1 0 1
305 0 1 0 2.209061649658457 23.125693518300125 10.882064625875373 1 -1 0
1134 0 1 0 3.9060036061202803 25.231749945024326 13.833522815025397 1 -1 0
873 0 1 0 2.636163873940974 24.44935564860366 16.024193449755597 2 0 0
1133 0 1 0 4.386954046204613 23.762106748137892 13.576042337412337 1 -1 0
1132 0 2 0 4.7280198698428615 24.712093397020794 13.607608172128256 1 -1 0
594 0 1 0 1.2203617619490257 25.839029825448286 14.389966635034318 1 0 0
592 0 2 0 2.1427882444238406 25.8876500781728 13.962558090906034 1 0 0
848 0 1 0 6.7659963420178135 24.761568294623977 13.780325450591272 1 -1 0
872 0 1 0 2.193407900788146 24.15289870357704 17.428178062738084 2 0 0
1511 0 1 0 4.034638110846832 25.486364418317564 17.366680975064682 1 0 0
1078 0 2 0 1.400819997929597 24.88620289863922 19.094655247520603 1 0 0
871 0 2 0 2.989963525049319 24.098522216390798 16.837077465742308 2 0 0
1079 0 1 0 1.2962016062751853 25.81596820316851 18.73267679833359 1 0 0
1032 0 1 0 7.112486278372634 23.963801229495242 17.158024251439 1 -1 -1
1288 0 2 0 4.551750828480524 23.45211857654007 21.86164763322048 2 -1 0
964 0 2 0 3.8708676122606005 25.79759240845267 20.344518555136442 1 -1 -1
1345 0 2 0 6.991919870450935 23.7837926970565 20.79212044671301 1 0 0
1290 0 1 0 5.512128264364199 23.18171408268587 21.70782907466694 2 -1 0
1347 0 1 0 6.7270770270113305 24.335108921005155 20.019821369334164 1 0 0
965 0 1 0 4.117376734397429 25.014483323963066 20.944365650014937 1 -1 -1
966 0 1 0 3.00187013817129 25.546110765701545 20.090892267477845 1 -1 -1
290 0 1 0 3.0059596184963775 22.882278192860916 21.259490757909937 1 0 0
1289 0 1 0 4.4150023544515244 23.332841279594465 22.86834196801165 2 -1 0
333 0 1 0 1.3462260993725361 24.346056703477434 25.513065745945795 1 0 0
50 0 1 0 4.879625505458678 25.92868858455708 25.65078375572082 1 -1 -1
1189 0 2 0 6.051703587125277 24.726994967711015 24.70530144944879 1 0 0
1191 0 1 0 5.343066282165863 24.02644992730858 24.622933121280912 1 0 0
923 0 1 0 7.000005433949541 25.280542716302776 23.33006314154143 1 -1 0
331 0 2 0 1.2800352671162838 23.445765175796648 25.18905007482443 1 0 0
1190 0 1 0 6.7740898519151855 24.264654835999913 25.149770716735716 1 0 0
644 0 1 0 2.8394865129141094 22.887871702561732 24.521392518461063 1 0 0
1418 0 1 0 11.815992899309341 3.0858486750656122 2.356352216731933 1 2 0
957 0 1 0 8.56483577982136 2.957529440261666 3.6329570231959107 0 0 1
1417 0 2 0 10.87397730062551 3.11131095866793 2.124483375977114 1 2 0
956 0 1 0 7.852281063090054 1.829050844684715 2.874939400768104 0 0 1
955 0 2 0 7.883515491910048 2.801705597464991 2.9611324552953624 0 0 1
297 0 1 0 10.847804747567185 1.4770203864960796 3.663421210382511 0 0 0
1419 0 1 0 10.574476309554433 4.049420859044072 2.263047829185976 1 2 0
340 0 2 0 9.805879784496712 3.0205620608546324 6.070733141701036 0 0 1
296 0 1 0 10.219765422323292 1.7723601813036232 5.037506251443005 0 0 0
295 0 2 0 10.371825638092663 1.0267601463720355 4.379290399757561 0 0 0
1551 0 1 0 12.576637951575762 1.9045492940507485 6.403863834138816 1 1 0
341 0 1 0 10.254463248517348 2.571868438440857 6.874864083010729 0 0 1
1550 0 1 0 13.273199062451425 2.992787187748707 5.506348043328272 1 1 0
342 0 1 0 10.453408495619415 3.73936946796874 5.839833543875079 0 0 1
1549 0 2 0 13.439850356153858 2.1729606718270613 5.911498339262845 1 1 0
546 0 1 0 11.599256494886664 2.020115535377262 8.910595849981268 1 1 0