LAMMPS (4 Feb 2025)
OMP_NUM_THREADS environment is not set. Defaulting to 1 thread. (src/comm.cpp:99)
  using 1 OpenMP thread(s) per MPI task
# LAMMPS script for continuing NVT simulation

atom_modify map yes
newton      on

read_restart nvt_prod.restart.880000
Reading restart file ...
  restart file = 4 Feb 2025, LAMMPS = 4 Feb 2025
  restoring atom style full from restart
  orthogonal box = (0 0 0) to (152.46792 146.71232 151.07317)
  16 by 8 by 8 MPI processor grid
  pair style symmetrix/mace stores no restart info
  11640 atoms
Finding 1-2 1-3 1-4 neighbors ...
  special bond factors lj:    0        0        0       
  special bond factors coul:  0        0        0       
     0 = max # of 1-2 neighbors
     0 = max # of 1-3 neighbors
     0 = max # of 1-4 neighbors
     1 = max # of special neighbors
  special bonds CPU = 4.809 seconds
  read_restart CPU = 4.988 seconds

pair_style  symmetrix/mace
pair_coeff  * * ../../../00-common/models/ch2o-dens-inv_swa-1-6-8.json C H O
Loading MACE model from '../../../00-common/models/ch2o-dens-inv_swa-1-6-8.json' ... success
  mapping LAMMPS type 1 (C) to MACE type 1
  mapping LAMMPS type 2 (H) to MACE type 0
  mapping LAMMPS type 3 (O) to MACE type 2

group graphene type 1
8640 atoms in group graphene
group H2O type 2 3
3000 atoms in group H2O

thermo 1000

######### NVT production for 80 ps #############

dump DUMP1 all atom 100 nvt_prod_11.lammpstrj
timestep 0.001
fix NVT1 graphene nvt temp 300 300 0.1
Resetting global fix info from restart file:
  fix style: nvt, fix ID: NVT1
fix NVT2 H2O nvt temp 300 300 0.1
Resetting global fix info from restart file:
  fix style: nvt, fix ID: NVT2
run 80000
All restart file global fix info was re-assigned
Neighbor list info ...
  update: every = 1 steps, delay = 0 steps, check = yes
  max neighbors/atom: 2000, page size: 100000
  master list distance cutoff = 8
  ghost atom cutoff = 8
  binsize = 4, bins = 39 37 38
  1 neighbor lists, perpetual/occasional/extra = 1 0 0
  (1) pair symmetrix/mace, perpetual
      attributes: full, newton on
      pair build: full/bin
      stencil: full/bin/3d
      bin: standard
Per MPI rank memory allocation (min/avg/max) = 5.921 | 6.155 | 8.031 Mbytes
   Step          Temp          E_pair         E_mol          TotEng         Press     
    880000   300.19648     -1809880.7      0             -1809429.1      49.741886    
    881000   298.70371     -1809878.6      0             -1809429.2      65.159517    
    882000   299.15881     -1809885.2      0             -1809435.1      71.874919    
    883000   297.35645     -1809875.1      0             -1809427.7      87.783827    
    884000   300.05491     -1809878.1      0             -1809426.7      14.908536    
    885000   298.23481     -1809879.7      0             -1809431        57.003332    
    886000   297.17984     -1809877.5      0             -1809430.4      20.924062    
    887000   297.49202     -1809873.5      0             -1809425.9      82.432494    
    888000   303.76005     -1809877.4      0             -1809420.4      86.352024    
    889000   300.69327     -1809886.8      0             -1809434.4      81.596497    
    890000   299.08099     -1809875.4      0             -1809425.4      42.864664    
    891000   302.24301     -1809876.3      0             -1809421.6      52.238522    
    892000   298.99465     -1809878.4      0             -1809428.6      75.734689    
    893000   293.48375     -1809877.8      0             -1809436.3      28.787645    
    894000   304.29199     -1809879.2      0             -1809421.4      61.978944    
    895000   299.44668     -1809884.1      0             -1809433.6      68.936774    
    896000   300.5521      -1809882.9      0             -1809430.8      48.714512    
    897000   304.0863      -1809880.9      0             -1809423.4      61.612378    
    898000   298.55909     -1809881        0             -1809431.8      54.005371    
    899000   302.37579     -1809880.8      0             -1809425.9      51.651583    
    900000   298.81024     -1809874.1      0             -1809424.5      76.328585    
    901000   299.78012     -1809873.3      0             -1809422.3      117.82986    
    902000   302.29553     -1809882.6      0             -1809427.8     -4.1467349    
    903000   304.92262     -1809882.1      0             -1809423.4      102.77223    
    904000   301.57708     -1809878.8      0             -1809425.1      73.911074    
    905000   298.60357     -1809874.5      0             -1809425.3      23.052978    
    906000   296.71025     -1809872.5      0             -1809426.2      87.258064    
    907000   303.39987     -1809884.2      0             -1809427.7     -1.6469165    
    908000   299.59599     -1809876.3      0             -1809425.6      72.781245    
    909000   297.3161      -1809880        0             -1809432.7      92.948812    
    910000   300.24122     -1809884.5      0             -1809432.8      90.180871    
    911000   301.71475     -1809879.4      0             -1809425.5      39.382245    
    912000   298.18561     -1809872.2      0             -1809423.6      62.479104    
    913000   301.32867     -1809876.8      0             -1809423.5      58.056064    
    914000   299.44778     -1809878        0             -1809427.4      72.330087    
    915000   300.24891     -1809884.9      0             -1809433.2      74.452719    
    916000   295.62863     -1809883.5      0             -1809438.7      52.999419    
    917000   299.14881     -1809876.9      0             -1809426.8      59.511721    
    918000   302.67497     -1809878.7      0             -1809423.4      56.317066    
    919000   295.687       -1809876.3      0             -1809431.5      51.285524    
    920000   296.5901      -1809880.1      0             -1809433.9      59.903887    
    921000   300.60366     -1809873.8      0             -1809421.5      63.976491    
    922000   296.15914     -1809878.9      0             -1809433.3      70.710291    
    923000   300.9551      -1809876.6      0             -1809423.9      25.847802    
    924000   304.40221     -1809882.7      0             -1809424.7      98.298699    
    925000   302.1816      -1809874.2      0             -1809419.5      79.226183    
    926000   297.73275     -1809877.1      0             -1809429.2      38.698674    
    927000   303.61578     -1809875.2      0             -1809418.4      56.919062    
    928000   304.00221     -1809881.8      0             -1809424.5      32.473059    
    929000   299.02344     -1809879        0             -1809429.1      65.398493    
    930000   301.11777     -1809871.1      0             -1809418.1      40.406688    
    931000   300.27076     -1809884.1      0             -1809432.3      53.546964    
    932000   305.15205     -1809877.2      0             -1809418.1      99.931096    
    933000   294.59013     -1809876.7      0             -1809433.5      19.477199    
    934000   302.39278     -1809882.3      0             -1809427.4      95.110072    
    935000   299.02192     -1809880.9      0             -1809431        69.910124    
    936000   299.5182      -1809877.5      0             -1809426.9      81.205383    
    937000   299.25331     -1809869.3      0             -1809419.1      49.139138    
    938000   302.95938     -1809877.4      0             -1809421.6      59.525464    
    939000   299.05943     -1809886.4      0             -1809436.5      76.43551     
    940000   298.50806     -1809878.5      0             -1809429.4      51.810223    
    941000   301.76759     -1809880.5      0             -1809426.5      43.16818     
    942000   299.22783     -1809880.3      0             -1809430.1      94.395057    
    943000   299.68843     -1809870.6      0             -1809419.7      94.371948    
    944000   300.48605     -1809875.8      0             -1809423.7      91.572446    
    945000   297.14581     -1809881.1      0             -1809434.1      47.376628    
    946000   301.84717     -1809878.9      0             -1809424.8      21.149327    
    947000   298.42179     -1809880.5      0             -1809431.5      72.293708    
    948000   298.40781     -1809881.2      0             -1809432.2      76.04467     
    949000   305.88338     -1809877.6      0             -1809417.4      44.909847    
    950000   300.80006     -1809880.6      0             -1809428.1      89.713814    
    951000   297.26392     -1809871.9      0             -1809424.7      44.741712    
    952000   302.42822     -1809874.3      0             -1809419.3      77.261114    
    953000   300.67984     -1809878.8      0             -1809426.4      35.658145    
    954000   301.48164     -1809876.3      0             -1809422.7      36.586608    
    955000   304.0977      -1809877.8      0             -1809420.3      63.457606    
    956000   298.38187     -1809884.9      0             -1809436        82.654943    
    957000   299.99657     -1809877.2      0             -1809425.8      42.360659    
    958000   295.92476     -1809874.1      0             -1809428.9      72.962672    
    959000   300.59752     -1809884        0             -1809431.8      71.770948    
    960000   301.65448     -1809876        0             -1809422.2      78.16403     
Loop time of 56586.3 on 1024 procs for 80000 steps with 11640 atoms

Performance: 0.122 ns/day, 196.480 hours/ns, 1.414 timesteps/s, 16.456 katom-step/s
100.0% CPU use with 1024 MPI tasks x 1 OpenMP threads

MPI task timing breakdown:
Section |  min time  |  avg time  |  max time  |%varavg| %total
---------------------------------------------------------------
Pair    | 0.3636     | 5686.7     | 51006      |12764.1 | 10.05
Bond    | 0.0031828  | 0.011938   | 0.090444   |  12.8 |  0.00
Neigh   | 0.071565   | 0.62407    | 4.9152     | 131.0 |  0.00
Comm    | 1.2805     | 1916.1     | 18934      |7742.1 |  3.39
Output  | 14.569     | 19.018     | 24.048     |  62.5 |  0.03
Modify  | 337.15     | 48952      | 56553      |5586.5 | 86.51
Other   |            | 12.19      |            |       |  0.02

Nlocal:        11.3672 ave         332 max           0 min
Histogram: 882 66 62 2 2 4 2 1 1 2
Nghost:        100.057 ave        1613 max           0 min
Histogram: 759 115 116 8 11 6 6 0 2 1
Neighs:              0 ave           0 max           0 min
Histogram: 1024 0 0 0 0 0 0 0 0 0
FullNghs:      1221.82 ave       64282 max           0 min
Histogram: 994 12 6 2 2 4 1 0 1 2

Total # of neighbors = 1251142
Ave neighs/atom = 107.48643
Ave special neighs/atom = 0
Neighbor list builds = 3752
Dangerous builds = 0

write_restart nvt_prod.restart.*
System init for write_restart ...
write_data nvt_prod_final.lammps-data
System init for write_data ...

Total wall time: 15:43:31
