LAMMPS data file via write_data, version 4 Feb 2025, timestep = 960000, units = metal

11640 atoms
3 atom types

0 152.46792 xlo xhi
0 146.71232442463722 ylo yhi
0 151.07316997686289 zlo zhi

Masses

1 12.01099999691024
2 1.007999999740698
3 15.99899999588435

Atoms # full

4104 0 1 0 4.548568819639663 3.8551738649959115 18.412259093337614 3 0 3
4099 0 1 0 3.034371278568054 1.4178291672518661 18.834715273603067 3 0 3
4103 0 1 0 3.1232768846191723 3.8273538818386688 18.262645592706427 3 0 3
4098 0 1 0 2.354574325276493 2.6375402219075452 18.469338536597395 3 0 3
3864 0 1 0 0.2819755779594639 3.8449159132253374 17.704339886185828 3 0 3
4097 0 1 0 0.9580124524037404 2.6759710267058407 18.19328052946248 3 0 3
4093 0 1 0 0.8644704980549093 0.24959999058849297 18.663754027528245 3 0 3
4363 0 1 0 7.70488216397898 15.99386651694085 16.625705732950625 3 0 3
4337 0 1 0 5.228742981156531 2.636367080035668 18.820982542189007 3 0 3
11145 0 3 0 1.5457424457607623 18.05683229532274 18.47948729046852 3 0 3
4361 0 1 0 5.622521597412742 17.198882276217326 16.048397746892743 3 0 3
3872 0 1 0 0.5296049787604096 8.674309332143029 16.607558133341758 3 0 3
4105 0 1 0 1.181006461609961 7.40280005382019 16.997926038680728 3 0 3
4112 0 1 0 4.680501453116605 8.715171251042316 17.49486688099679 3 0 3
4111 0 1 0 3.2844214678336936 8.69261909448016 17.152289518304748 3 0 3
4106 0 1 0 2.579977104619258 7.465919197804937 17.289408871732117 3 0 3
4107 0 1 0 3.2489467033877117 6.19682077176054 17.66197200682794 3 0 3
4108 0 1 0 4.652942576350874 6.264124127241154 17.916065410151884 3 0 3
4102 0 1 0 2.469859973971566 4.995150748761342 17.81991942893137 3 0 3
4101 0 1 0 1.051197155619411 5.026429523388535 17.483339516091036 3 0 3
4345 0 1 0 5.353048933313041 7.5197711379389744 17.843253183523363 3 0 3
4341 0 1 0 5.2670639528598935 5.073526125348244 18.29997376663629 3 0 3
4342 0 1 0 6.688546898162883 5.0308847003055 18.527578005295954 3 0 3
4346 0 1 0 6.748703621383988 7.501778157969387 18.101394143661274 3 0 3
4351 0 1 0 7.4584670980127035 8.73666434374098 18.000716552532886 3 0 3
4347 0 1 0 7.444499241707644 6.293065477190299 18.442775213416336 3 0 3
4352 0 1 0 8.895347932381219 8.751882208911457 18.207968838224843 3 0 3
4357 0 1 0 5.54099352976631 14.713746273900858 16.35690021714219 3 0 3
4362 0 1 0 7.026787274105922 17.203570658333167 16.296269511131772 3 0 3
3868 0 1 0 0.43769902158515095 6.205161393005053 17.088717483269985 3 0 3
4113 0 1 0 1.3209836568045012 12.316994843193532 16.018629067006522 3 0 3
4119 0 1 0 3.396727918093806 13.580289569649313 16.21090857581703 3 0 3
4114 0 1 0 2.704592035633943 12.356427044848015 16.368374627571367 3 0 3
4120 0 1 0 4.777532123559717 13.602967084587224 16.55019800355932 3 0 3
4115 0 1 0 3.34637417682144 11.123788837633487 16.790204249180576 3 0 3
4110 0 1 0 2.633470940559226 9.874047197941124 16.82057979722558 3 0 3
4116 0 1 0 4.674232220237314 11.137922585148823 17.186313315246796 3 0 3
4109 0 1 0 1.226785659049049 9.888672970412287 16.48299817176856 3 0 3
3880 0 1 0 0.6168125736795893 13.476246490153859 15.664559375165657 3 0 3
3876 0 1 0 0.5850031112689682 11.098388965851454 16.120114753248643 3 0 3
4353 0 1 0 5.405929464704522 12.37764682484538 17.088177772861822 3 0 3
4349 0 1 0 5.364898660525592 9.986210144475413 17.545015360748135 3 0 3
4354 0 1 0 6.793623523273594 12.44082778378947 17.40536769563114 3 0 3
4350 0 1 0 6.786445615006757 9.973534553389737 17.761120805708074 3 0 3
4355 0 1 0 7.532004886915521 11.195169457823821 17.692917465416542 3 0 3
4359 0 1 0 7.576745493860039 13.58608202469212 17.236866700845198 3 0 3
4360 0 1 0 9.006376648799701 13.57404396199321 17.45750438880093 3 0 3
4356 0 1 0 8.970058100457015 11.18381462540321 17.92307861781896 3 0 3
3860 0 1 0 0.20340514894553752 1.4660322391563876 18.229429020142113 3 0 3
4358 0 1 0 6.952021256627762 14.78311090549837 16.78494131667567 3 0 3
4122 0 1 0 2.810151486688218 17.153065383673393 15.48041916604055 3 0 3
4121 0 1 0 1.404808791828255 17.170409725211307 15.331453924086578 3 0 3
4117 0 1 0 1.3120266945706938 14.694454611120722 15.542337589450108 3 0 3
4124 0 1 0 4.889358227122453 15.924427936314766 16.022537662158353 3 0 3
4123 0 1 0 3.4465699543339716 15.971901942260844 15.81045533241305 3 0 3
4118 0 1 0 2.708106939443122 14.749386026397225 15.874377451730446 3 0 3
3884 0 1 0 0.6947192074673586 15.92995359340058 15.313887575453375 3 0 3
4364 0 1 0 9.100131622472682 15.968626198618896 16.927893357633554 3 0 3
4348 0 1 0 8.799869904755557 6.371118316889103 18.742000409408252 3 0 3
4343 0 1 0 7.342018805270839 3.841380575798291 18.870505804306525 3 0 3
8998 0 2 0 4.37725872002766 2.4726607661161477 22.429354834579108 3 0 3
11406 0 3 0 2.782268430194375 2.8263460711164003 22.396076898190294 3 0 3
10171 0 2 0 2.24988832599414 3.3285509225011305 21.754837092094274 3 0 3
4333 0 1 0 5.100364391668026 0.21160841714480833 19.49601704545489 3 0 3
10819 0 3 0 5.341514231873879 2.421708259333478 22.491266233129387 3 0 3
4573 0 1 0 9.377784008215224 0.35769554405249593 20.323945596076985 3 0 3
8997 0 2 0 5.637784485112484 1.5726399358034686 22.05466227487968 3 0 3
9806 0 2 0 7.810224062650204 16.791491741980256 19.56096178519096 3 0 3
4340 0 1 0 8.67539977016165 1.4893445318163077 19.797656864360714 3 0 3
4577 0 1 0 9.406321182800456 2.6935989669567495 19.630780881256708 3 0 3
10025 0 2 0 2.4645232485243938 13.000117852536084 20.017320626394017 3 0 3
9087 0 2 0 8.755452643231894 8.054742330473498 27.035494705246396 3 0 3
4334 0 1 0 6.521874119401338 0.2479255481134336 19.83280623067285 3 0 3
9649 0 2 0 0.7659742409328295 18.306229589799937 19.017706963789884 3 0 3
4339 0 1 0 7.227908042747491 1.4785325977446149 19.698860948149846 3 0 3
9296 0 2 0 1.0871188962650669 5.747100639541594 21.31648229984542 3 0 3
10332 0 2 0 4.942854658744901 6.170428369982979 21.079031688170122 3 0 3
11486 0 3 0 4.129245845908894 6.799980949114575 21.099754055296554 3 0 3
10331 0 2 0 3.3298237618227007 6.361364082101367 20.835882571023802 3 0 3
10710 0 3 0 4.917286750890656 9.628928024945633 20.729859723132716 3 0 3
8780 0 2 0 5.780809695838875 9.580681179835915 20.407759528298534 3 0 3
11601 0 3 0 6.217287518794681 4.864341114247921 21.8143693304403 3 0 3
10968 0 3 0 1.704605579492133 5.358865407876527 20.636351956441942 3 0 3
9295 0 2 0 1.1562386893154535 5.265674575924321 19.84535709297848 3 0 3
10122 0 2 0 4.162271334680632 6.779052148354851 23.15726575514106 3 0 3
10010 0 2 0 0.577610877002016 15.686416673436744 34.67664642337225 3 0 3
9805 0 2 0 6.553103816922676 16.089050207465142 19.776303984493307 3 0 3
10562 0 2 0 5.66984523118447 4.014464110664104 21.964895805279482 3 0 3
10561 0 2 0 7.025784311943356 4.630966926893482 21.26058585319125 3 0 3
10056 0 2 0 6.918949190801103 8.12335526448816 22.74126572559719 3 0 3
11418 0 3 0 7.522856954384059 7.908950406824998 21.065783272183968 3 0 3
10196 0 2 0 8.435116657344876 7.6357147509110845 21.28852874571685 3 0 3
11435 0 3 0 0.8447600118106351 16.697815088017965 25.010055337299825 3 0 3
8779 0 2 0 4.681890199461542 8.718096130871823 20.938778526336687 3 0 3
9717 0 2 0 0.6633674910144445 10.542255573809813 22.9172775225201 3 0 3
9337 0 2 0 4.041955626337116 11.696877749388497 20.734973442475358 3 0 3
9446 0 2 0 2.9926787093101095 11.661187134986314 22.735313269390815 3 0 3
11043 0 3 0 2.684869699107321 11.23403754335373 23.534014092553832 3 0 3
10989 0 3 0 3.7977140699635665 12.591627741206084 21.105768649219172 3 0 3
9338 0 2 0 4.675746659064782 12.82402434144238 21.445810190287617 3 0 3
10434 0 2 0 0.0757754163393029 14.524318067945932 27.128831700178527 3 0 3
9445 0 2 0 2.989823542669405 11.818088213116559 24.273559974575157 3 0 3
9722 0 2 0 1.0925785030136688 13.190138686482598 25.313335566553707 3 0 3
10195 0 2 0 7.595483107607106 8.796346433317195 20.63113446590128 3 0 3
9964 0 2 0 6.281615015534466 12.134464707105533 23.22531279394916 3 0 3
11302 0 3 0 6.196093718832625 12.89176108364135 22.57868623740863 3 0 3
10818 0 3 0 8.28603371386053 13.338806385683979 20.91592639724425 3 0 3
9963 0 2 0 6.906163664312924 12.935061034729259 21.925431332012526 3 0 3
10026 0 2 0 1.1479483221610947 13.590853889616294 19.80304805794955 3 0 3
9528 0 2 0 3.990322101082166 15.408732181210278 20.748586378233995 3 0 3
10273 0 2 0 4.0443355496119615 14.645612824367243 24.18899312960763 3 0 3
9341 0 2 0 2.9423936411629326 16.138304981216567 22.32089672462027 3 0 3
10991 0 3 0 2.907541888325742 15.312347279127376 21.937541853663802 3 0 3
9342 0 2 0 1.940579631023327 15.157380495241258 21.663131627082898 3 0 3
11084 0 3 0 4.656897236221314 15.527967166034953 19.99166230091703 3 0 3
8924 0 2 0 1.0522118847415776 14.083907763410403 31.03011110919857 3 0 3
8996 0 2 0 8.227773089587119 14.149331890520527 20.35183853811092 3 0 3
8995 0 2 0 9.040244223548319 13.473638703511023 21.55588371611819 3 0 3
10479 0 2 0 3.997063774088662 17.299495407165704 19.59055931383 3 0 3
10274 0 2 0 5.319479166454204 14.98010436722756 24.943695322419995 3 0 3
4100 0 1 0 4.480622185132346 1.4020614366133497 19.06162488987047 3 0 3
10151 0 2 0 0.5618625742417487 11.520709579296314 19.011600253419545 3 0 3
9878 0 2 0 7.107671951073825 15.56425041599046 23.824850511319006 3 0 3
11259 0 3 0 6.827206875249804 14.768893754363841 24.314438026413935 3 0 3
10310 0 2 0 8.585878291405665 17.27813604047417 22.744888214412107 3 0 3
11475 0 3 0 7.642888567793858 16.973817063353383 22.68865114779134 3 0 3
11223 0 3 0 7.476104194614452 16.072536636898366 20.058604115540714 3 0 3
9877 0 2 0 6.632657210140726 14.048134999913929 23.64537251032505 3 0 3
10172 0 2 0 2.601770861277494 3.223854303640532 23.258055244576802 3 0 3
11628 0 3 0 3.471725082831089 4.01588895016496 24.919244535171817 3 0 3
9825 0 2 0 6.541914414660596 2.3348725421833536 25.101050875630072 3 0 3
9998 0 2 0 0.6273007673122751 0.771317669229443 24.590488306932716 3 0 3
11233 0 3 0 5.9517122912137825 2.2363200610808898 25.89249145081448 3 0 3
9826 0 2 0 5.1616267563033835 2.7563907371590335 25.65538309746906 3 0 3
10615 0 2 0 3.5579710962325617 4.9944359418209245 24.75041491723007 3 0 3
10616 0 2 0 2.8508937664034755 4.129980503524496 25.631700111125753 3 0 3
10121 0 2 0 3.867013212781154 7.615327638051699 24.410839850741617 3 0 3
11381 0 3 0 4.4843751906702325 6.921461973658642 24.04149140848986 3 0 3
10664 0 3 0 2.435944948963227 5.302050533597898 27.227253315812224 3 0 3
8688 0 2 0 3.217809792065148 5.923411267794964 27.202373562343386 3 0 3
9174 0 2 0 3.5111933347582687 9.355979123218091 25.440959128477807 3 0 3
10907 0 3 0 2.8601964709972605 8.802316121146417 24.95378658668099 3 0 3
8687 0 2 0 1.7441303860680233 5.881910970980164 26.95140884546189 3 0 3
9048 0 2 0 5.010498555038137 8.871012790789958 27.15389678870527 3 0 3
10844 0 3 0 5.327705881407338 9.790129996248906 27.014301277102433 3 0 3
11348 0 3 0 6.900659893503747 8.174750155585444 23.749066580025154 3 0 3
9476 0 2 0 6.670433666877471 5.406490163126654 23.8794534405328 3 0 3
11058 0 3 0 6.83057015245394 5.418563762089107 24.84350982343832 3 0 3
9475 0 2 0 6.647073910475831 4.513363073539244 25.176646446267515 3 0 3
10055 0 2 0 6.055141607148351 7.663228299938667 23.95805159451382 3 0 3
11103 0 3 0 4.628242551918984 6.970767640392042 27.181901907183367 3 0 3
9047 0 2 0 5.568732563275623 9.948668021732173 27.964256490262994 3 0 3
9566 0 2 0 4.881879477378025 6.78316440124068 26.242385897172543 3 0 3
9595 0 2 0 8.477327389855255 8.041983519748992 24.924681527833876 3 0 3
9088 0 2 0 7.286324036551619 8.173537373691115 27.49749193725844 3 0 3
11118 0 3 0 9.317822240318034 7.810322377940344 25.466380798894015 3 0 3
11029 0 3 0 0.17142977155414335 6.851132182779366 26.005177616552608 3 0 3
9173 0 2 0 2.5713279622224707 9.466955432101036 24.301651904571244 3 0 3
10159 0 2 0 4.426505515836566 13.152045048334594 25.643818944406917 3 0 3
11400 0 3 0 4.379117758935489 12.142877231959226 25.67666722374083 3 0 3
10160 0 2 0 4.308312811652505 11.843578972116138 26.605454683437998 3 0 3
11165 0 3 0 3.04687477737737 12.464802823803781 28.416728273120942 3 0 3
9690 0 2 0 2.4800729571476854 13.050601754664347 27.865148624090246 3 0 3
10347 0 2 0 4.550225458426933 18.2309021834428 31.277225654045104 3 0 3
11539 0 3 0 9.154486583847193 11.637877219316465 25.09684249895206 3 0 3
10191 0 2 0 5.944875923962603 11.145006685310378 25.050995270460447 3 0 3
9689 0 2 0 3.159554639965835 13.036628624217022 29.21810916455863 3 0 3
11416 0 3 0 6.6249513962131745 10.896522548300688 24.369952263065677 3 0 3
10192 0 2 0 6.643612251461192 9.856428152934692 24.079578416965877 3 0 3
10438 0 2 0 8.207261335519762 11.30170457189446 24.80135496223769 3 0 3
10658 0 3 0 7.452314608309447 10.495006793989475 29.149644171271422 3 0 3
8675 0 2 0 7.89898725362579 11.191970831392261 28.609623717804773 3 0 3
8676 0 2 0 7.871922996610684 9.629524459487971 28.861673162424157 3 0 3
11457 0 3 0 4.347541055330196 14.795135243802843 25.083650447021792 3 0 3
10861 0 3 0 6.082422461542607 18.008885771606707 28.374009138090784 3 0 3
8880 0 2 0 4.092819336163994 17.95530486989151 26.98598116829566 3 0 3
8879 0 2 0 4.242083307203382 17.184581126816575 25.767508823923436 3 0 3
10760 0 3 0 3.4838372380229856 17.551977917999434 26.313403650779932 3 0 3
10294 0 2 0 3.2975173864474474 16.159524157185928 27.498868833885382 3 0 3
11364 0 3 0 0.513665312990479 17.93533776773456 31.481062509216773 3 0 3
10015 0 2 0 6.609597521870761 14.74250527204336 32.65641132572339 3 0 3
11162 0 3 0 0.4379688963256218 15.64647725353231 20.72603198591391 3 0 3
11182 0 3 0 6.140672065784784 15.077095128519208 29.305159491897985 3 0 3
10293 0 2 0 4.385961189244472 15.557358869501188 28.393125093230058 3 0 3
11071 0 3 0 8.9705042713146 17.77682788283506 26.6187014634613 3 0 3
10448 0 2 0 7.3472019168359415 15.247034043441012 27.83776178501737 3 0 3
11544 0 3 0 8.01646688592812 15.144315589462414 27.138519578925948 3 0 3
9501 0 2 0 8.665404567512153 16.887301303827044 26.824018656530477 3 0 3
10447 0 2 0 7.444705041583968 15.123563007960124 26.410994035120066 3 0 3
11467 0 3 0 3.4329780612578755 15.823740848080238 28.43033081446398 3 0 3
9999 0 2 0 6.431143121662487 4.107745822997081 27.48579296149473 3 0 3
10980 0 3 0 3.121019602360337 6.057945166985509 30.192830648800854 3 0 3
9319 0 2 0 3.901020467136453 5.5160549466999935 30.089661670304224 3 0 3
9320 0 2 0 2.6372456077645627 5.79946675924584 29.381533933031832 3 0 3
8883 0 2 0 3.4341086315191225 7.716920722230134 30.24231518460631 3 0 3
10762 0 3 0 3.6810678010300415 8.675597357886936 30.297802795073753 3 0 3
9565 0 2 0 5.325952411101067 6.396608938163057 27.638991616082468 3 0 3
11320 0 3 0 6.441576206694631 4.834120638747493 28.075984265660107 3 0 3
11608 0 3 0 8.79536481973295 10.629480829783816 31.91910367446545 3 0 3
10575 0 2 0 8.885695642430768 11.223274576514228 31.20031034753921 3 0 3
10000 0 2 0 7.2657025857003195 5.333893765141076 28.029922562102463 3 0 3
10576 0 2 0 7.865811331630451 10.348162413282408 31.79159076170402 3 0 3
10359 0 2 0 1.4129988756130194 10.145403880999305 30.07083438177742 3 0 3
9418 0 2 0 0.17358005599910314 7.6851686767099 26.52622498318171 3 0 3
11500 0 3 0 1.6326048164738785 10.109949907769503 29.112939661962084 3 0 3
10360 0 2 0 2.050601611705391 10.975219217605385 28.882257992065977 3 0 3
11221 0 3 0 9.527897732178886 3.402761812157679 25.21059808709156 3 0 3
8884 0 2 0 3.0618990977827405 9.05437478414747 29.679073437910787 3 0 3
10623 0 2 0 2.765393375116429 9.828369748874595 31.713511385637315 3 0 3
9200 0 2 0 6.250659932774713 10.548791419874895 30.611591405869813 3 0 3
10920 0 3 0 5.483447669172484 10.56738978936183 31.213893441712425 3 0 3
11632 0 3 0 1.8947224831786207 10.25900739847662 31.71157628772744 3 0 3
9844 0 2 0 4.592008407844584 12.18191537954155 30.994119383858063 3 0 3
11242 0 3 0 4.349147708434532 13.109713328453493 30.82425042553577 3 0 3
9199 0 2 0 5.029899801649709 9.73780344241221 30.980547152650328 3 0 3
9843 0 2 0 4.321050890797228 13.635151594419643 31.659116811211824 3 0 3
10348 0 2 0 5.730618039166056 18.150081528753628 30.358823142889204 3 0 3
9846 0 2 0 5.3137933762746234 16.512739281710946 32.141804374249254 3 0 3
10926 0 3 0 1.7098190666102808 13.839708174280803 34.419935036111 3 0 3
11243 0 3 0 4.962980839407373 15.851555049539108 32.72325124090119 3 0 3
4094 0 1 0 2.2684783129667374 0.20113497984062456 19.00794803973574 3 0 3
10087 0 2 0 0.9464720719816434 17.2257780563327 30.91414971509405 3 0 3
9960 0 2 0 0.8289212428539675 15.46493637506074 29.083555834860572 3 0 3
9845 0 2 0 4.579182158840582 16.387499005523512 33.45116117649953 3 0 3
9286 0 2 0 1.5836812161077771 8.853916906931527 19.642062629444304 3 0 3
9959 0 2 0 2.1645360101636792 15.867698183105627 29.6468502076872 3 0 3
11300 0 3 0 1.283598362554446 15.6902630052279 29.9596270616391 3 0 3
11560 0 3 0 3.8958561332664106 18.289680915480744 19.6139363664037 3 0 3
9212 0 2 0 1.550864133229882 12.92668010466078 34.74160716511906 3 0 3
10088 0 2 0 0.5402193396668501 17.601032524574574 32.392128196155255 3 0 3
9527 0 2 0 4.301366499550986 15.22541663378055 19.168231453536478 3 0 3
9897 0 2 0 8.457251973853111 17.771301770930638 30.772574572611056 3 0 3
10624 0 2 0 2.136858417199146 11.20528585308341 31.80392312800567 3 0 3
11269 0 3 0 8.575919138025379 16.816064989327785 30.474175544154157 3 0 3
9898 0 2 0 8.566459409007003 16.31319413636976 31.32931001053649 3 0 3
9724 0 2 0 6.877968075656471 15.498103673958083 29.77909089461475 3 0 3
9723 0 2 0 5.829082721261472 14.306126618976243 29.839899551191824 3 0 3
9847 0 2 0 9.258239462881242 13.851852972689377 30.80207911259603 3 0 3
9211 0 2 0 1.2984374208506904 13.801283760317181 33.54493775131704 3 0 3
11328 0 3 0 7.283075168318711 14.367290050725902 32.00336041312206 3 0 3
10016 0 2 0 8.08097336537683 14.07962231598866 32.54804756140989 3 0 3
9082 0 2 0 7.063977459150067 18.01361716385973 28.248403184122616 3 0 3
11428 0 3 0 3.380122102081631 18.166372551604233 22.4046342071777 3 0 3
9997 0 2 0 1.4900107498958013 1.2999525878938591 23.519701159566385 3 0 3
11494 0 3 0 5.479905922571619 18.06284379961434 31.29994678618456 3 0 3
11333 0 3 0 1.7747452118896687 13.079678031330188 19.30341795285862 3 0 3
9417 0 2 0 0.47829920735411147 7.173241884556296 25.115385850470314 3 0 3
10864 0 3 0 8.167877238181887 7.973571263883965 27.869537069140435 3 0 3
9583 0 2 0 8.586466159710556 13.345942440637957 27.575275053279963 3 0 3
9721 0 2 0 2.2732927869631037 14.333151251136554 25.651834676232617 3 0 3
11181 0 3 0 1.6136225841374394 13.655503202421773 25.994690433932625 3 0 3
11065 0 3 0 8.314419992551732 10.507092113731629 20.860394122498352 3 0 3
9489 0 2 0 8.172774308154828 11.519519260516656 20.644657381545255 3 0 3
11112 0 3 0 8.871941536828176 12.431270808857771 27.615408918889557 3 0 3
9584 0 2 0 8.980689292725243 12.047084741824245 26.713422496915484 3 0 3
9490 0 2 0 7.68395427490312 10.253972305520072 21.538790316381306 3 0 3
10421 0 2 0 9.095331547588485 3.682285259867297 22.775235477905532 3 0 3
10230 0 2 0 1.8081068491956676 16.45498503019785 25.267483140880746 3 0 3
10229 0 2 0 0.934082040188155 17.325146863569852 24.22537037861932 3 0 3
10309 0 2 0 7.639872076432232 16.512783160210837 21.775104260308254 3 0 3
4581 0 1 0 9.438107548977955 5.107904228860923 19.15988771304137 3 0 3
10330 0 2 0 0.7980901707626467 7.74945812401756 22.57295333178461 3 0 3
10963 0 3 0 1.2424787642313257 8.967733497774281 20.51371571646927 3 0 3
9848 0 2 0 9.159530811317863 12.654187522933432 29.727731865696192 3 0 3
4344 0 1 0 8.723380385242017 3.871647179599308 19.180194696499882 3 0 3
9285 0 2 0 0.628580872282469 9.688364911542672 20.4430275634151 3 0 3
10782 0 3 0 0.3442360986438249 13.761700317029812 31.661918695371835 3 0 3
11319 0 3 0 0.8961780190241377 0.5748270121901496 23.67015247161036 3 0 3
4338 0 1 0 6.618878383661998 2.621563571258282 19.116021270929792 3 0 3
11485 0 3 0 0.6975242500054998 7.0131920251192055 23.20184481465808 3 0 3
10422 0 2 0 9.077349657579651 5.221919279533525 22.57546288783688 3 0 3
10480 0 2 0 3.0144472674870526 18.31668592896361 19.133225078327264 3 0 3
9596 0 2 0 9.384125423674938 6.865038753651111 25.269032511980726 3 0 3
9802 0 2 0 9.445925471350048 3.0077935694547224 26.089544887366223 3 0 3
9502 0 2 0 9.390804390859861 18.27724287749787 27.31890261903517 3 0 3
9684 0 2 0 0.1290322146445817 15.724138183890245 19.8219089144056 3 0 3
10215 0 2 0 3.647976092027533 18.331792769019103 21.485682888688913 3 0 3
4130 0 1 0 2.8067605822190083 22.18809414967767 15.661784402093287 3 0 3
4126 0 1 0 2.8208758802082734 19.627286672327102 15.450994983736516 3 0 3
4128 0 1 0 4.930798924979416 18.442199576252072 15.838598082759102 3 0 3
4132 0 1 0 4.8916931342937655 20.860631744495006 15.911624337379925 3 0 3
4151 0 1 0 3.417128275909946 33.20146893888194 16.335828120560226 3 0 3
4131 0 1 0 3.470861824266432 20.88457796210894 15.659291435860993 3 0 3
4390 0 1 0 6.897765413543676 34.443778347349046 17.059648353280433 3 0 3
4127 0 1 0 3.557434932899184 18.368301450124385 15.55885104206254 3 0 3
4125 0 1 0 1.4360916893057938 19.620180929924103 15.141512208062764 3 0 3
4129 0 1 0 1.3740311770654126 22.171906378067668 15.342184689412203 3 0 3
11285 0 3 0 1.5038436365957317 21.358720329058926 18.167741695741892 3 0 3
9650 0 2 0 1.4776085489992086 18.75029418117879 17.715513735794868 3 0 3
3888 0 1 0 0.7008166481235635 18.39544538061277 15.071878811630068 3 0 3
3892 0 1 0 0.7121324359864459 20.905866079217123 15.09170766403497 3 0 3
9054 0 2 0 0.3533444834823083 24.564078759993624 18.13925121993964 3 0 3
4369 0 1 0 5.608700290058095 22.10979864080522 16.040434492277964 3 0 3
4365 0 1 0 5.606731254324877 19.667352038908287 16.055042438071666 3 0 3
4366 0 1 0 6.993317656883417 19.649488197718433 16.321065680495934 3 0 3
4370 0 1 0 7.0223269262788035 22.1326533983742 16.217939614840372 3 0 3
4371 0 1 0 7.715158423890491 20.871425753246005 16.432356720972773 3 0 3
4367 0 1 0 7.685111943699295 18.385653337303655 16.30264838412298 3 0 3
4372 0 1 0 9.083390085367435 20.831676753564604 16.565403146563717 3 0 3
4391 0 1 0 7.632332356692056 33.23619955328984 16.920421085220962 3 0 3
9929 0 2 0 1.0697700022624586 22.28212666885408 18.157866398923407 3 0 3
4368 0 1 0 9.10258570048806 18.363460955872814 16.574570780789667 3 0 3
4139 0 1 0 3.4833065240732264 25.788672244425722 15.98436669755518 3 0 3
4138 0 1 0 2.765824741666026 27.038971294631526 15.756944541357239 3 0 3
4134 0 1 0 2.7431660102844053 24.578311199193916 15.833815521419965 3 0 3
4137 0 1 0 1.351973592968251 26.998205162664007 15.517774296578152 3 0 3
4136 0 1 0 4.958850040307953 23.37247947235685 16.022664687307348 3 0 3
4140 0 1 0 4.9312562902121595 25.793624760263565 16.022817776964168 3 0 3
4135 0 1 0 3.509099129626065 23.37178945906533 15.874673171491567 3 0 3
4133 0 1 0 1.334800878261039 24.581555923258062 15.54637709443731 3 0 3
3896 0 1 0 0.6075855053352104 23.3848970972163 15.312275349598336 3 0 3
3900 0 1 0 0.6464784312917372 25.84066658238331 15.403034002217781 3 0 3
10288 0 2 0 3.6411649364258274 22.14514300980758 18.44987956691817 3 0 3
4392 0 1 0 9.069094853892675 33.24835645850571 17.174778204826776 3 0 3
4373 0 1 0 5.673446921610357 24.588623408589832 16.020449410935242 3 0 3
4377 0 1 0 5.586546342458305 27.017129281481434 16.276700597452354 3 0 3
4374 0 1 0 7.14447676060435 24.56398339590901 16.085320992665842 3 0 3
4378 0 1 0 6.98333253780934 27.063974404259618 16.329263537169354 3 0 3
4379 0 1 0 7.745911921588669 25.846505368527513 16.282345148739896 3 0 3
4375 0 1 0 7.83472530002484 23.285418686934033 16.202164967616955 3 0 3
4380 0 1 0 9.230786672777473 25.845683114153523 16.391948944238628 3 0 3
4376 0 1 0 9.226075946585441 23.33141943231381 16.4121823636489 3 0 3
10592 0 2 0 1.874023922741033 29.910767888175624 18.33900863486722 3 0 3
3912 0 1 0 0.665854348470345 33.2718664353507 15.768133580417654 3 0 3
3904 0 1 0 0.7468021293804779 28.261211990506716 15.49229610153917 3 0 3
4143 0 1 0 3.4845202928380052 28.299782306326154 15.90715428771231 3 0 3
4142 0 1 0 2.757862659496913 29.55139775787071 15.78849473170149 3 0 3
4144 0 1 0 4.884113936076257 28.302432657956768 16.221713996091108 3 0 3
4147 0 1 0 3.443193789567035 30.766040234020757 16.059930905103077 3 0 3
4148 0 1 0 4.842335952348969 30.749270734280927 16.400395683553395 3 0 3
4141 0 1 0 1.3764488977450715 29.561940364267713 15.7058621032167 3 0 3
4146 0 1 0 2.719323233001739 31.965801602660004 16.025703351473126 3 0 3
4145 0 1 0 1.3319715253809643 31.988922699585782 15.8224411936924 3 0 3
3908 0 1 0 0.6363160236082414 30.782782916719093 15.624828913718968 3 0 3
3916 0 1 0 0.5670944314352462 35.735614103298936 16.03585007737179 3 0 3
4395 0 1 0 7.614277851696613 35.72065018231882 17.343120242975978 3 0 3
4385 0 1 0 5.497057072249718 32.014649348040415 16.47992312516285 3 0 3
4386 0 1 0 6.940470310350904 32.042208652494466 16.673757087810184 3 0 3
4389 0 1 0 5.502878714488965 34.47028296420896 16.751298751921528 3 0 3
4381 0 1 0 5.592157150930116 29.530889377674143 16.366329313962993 3 0 3
4382 0 1 0 7.010914778261467 29.542427577618913 16.531602246151305 3 0 3
4383 0 1 0 7.72891279974089 28.283089564685355 16.54232901359232 3 0 3
4387 0 1 0 7.673315546818258 30.794935931553873 16.688298179819796 3 0 3
4384 0 1 0 9.16855095483581 28.27251686575703 16.68822069679488 3 0 3
4388 0 1 0 9.106945704996111 30.79770904080946 16.836347684761442 3 0 3
4396 0 1 0 8.969061148384755 35.71732967258705 17.606993538319756 3 0 3
8698 0 2 0 5.588690889492948 24.159513331778506 18.49110729624335 3 0 3
4152 0 1 0 4.810752435257699 33.24955658201445 16.45543250314054 3 0 3
4155 0 1 0 3.4176328642244256 35.72167712132504 16.531715364511243 3 0 3
4156 0 1 0 4.777349667100279 35.70635718283975 16.8309097750911 3 0 3
4150 0 1 0 2.728005507121241 34.49284776733105 16.301396892586798 3 0 3
4149 0 1 0 1.3303584141175722 34.535668888526885 16.01019524842 3 0 3
10591 0 2 0 1.975682786408127 28.423342720940393 18.82635959674906 3 0 3
9027 0 2 0 2.8973098264795123 21.275508537873286 21.062995202586826 3 0 3
10834 0 3 0 1.9725033621891659 21.18168569913022 21.35432338390715 3 0 3
9028 0 2 0 2.114545880195662 21.030840084221836 22.31650022071731 3 0 3
9383 0 2 0 6.9765422255544065 18.56193177601307 22.234087475059916 3 0 3
9384 0 2 0 5.762988296919663 18.76952000070573 21.18216424064767 3 0 3
11002 0 3 0 5.290484942248211 35.860166212719584 24.839149700093973 3 0 3
10519 0 2 0 0.13087006610822982 24.85846516980991 26.590077983368214 3 0 3
10287 0 2 0 4.535181633646735 22.535799432076015 19.64308284220487 3 0 3
9347 0 2 0 0.9742663342594512 19.55780238519331 34.368638232464946 3 0 3
8809 0 2 0 1.7531709793045693 18.629272649899427 22.554257069955828 3 0 3
11173 0 3 0 5.205298866036986 20.229166489685667 24.179551007621008 3 0 3
9705 0 2 0 5.846591721278638 20.139363457451367 23.37695744051461 3 0 3
10598 0 2 0 4.804810104801835 21.749345001304356 22.679284472201058 3 0 3
11619 0 3 0 4.663942416950109 22.25468877195077 21.88027983747668 3 0 3
9932 0 2 0 2.1954303543124265 34.65132630009711 19.147130138704394 3 0 3
9478 0 2 0 5.603544397223622 29.895288576088447 19.767004202850398 3 0 3
9792 0 2 0 7.563589800999655 21.405713300083345 19.694867954483726 3 0 3
8961 0 2 0 8.16463391028841 21.324763964811236 22.30603634837658 3 0 3
9930 0 2 0 1.36660543320523 21.069222043025547 19.0691638879617 3 0 3
10510 0 2 0 0.6652063537926819 31.752546677494212 34.3060496595718 3 0 3
9411 0 2 0 0.28300414704895277 33.50157823274036 30.838609812354317 3 0 3
10725 0 3 0 0.8447564680624863 18.637925264779458 22.88518043391735 3 0 3
10096 0 2 0 0.2001350113756901 23.689177818160555 32.59451803188928 3 0 3
11012 0 3 0 6.33682054442365 19.227357099392744 21.817904334066284 3 0 3
10597 0 2 0 4.567592162167395 23.154856544966602 22.16052209984587 3 0 3
11151 0 3 0 1.774641045557855 26.250855346107098 21.85974326899577 3 0 3
9661 0 2 0 2.5574884926932597 26.49439138319813 21.37081166101627 3 0 3
11158 0 3 0 4.005740773290615 26.47425424112918 20.21763782067849 3 0 3
9675 0 2 0 4.763825276280457 27.007016496303052 20.520931876648927 3 0 3
9676 0 2 0 4.429109538885288 25.75595217027549 19.720208200633937 3 0 3
9396 0 2 0 1.3551251782391114 24.542028222931826 21.416454538436763 3 0 3
11018 0 3 0 0.7985467138749195 23.753813618612284 21.132215790112024 3 0 3
10253 0 2 0 2.4770828747110327 19.19525533196274 31.073241683140303 3 0 3
9395 0 2 0 1.2768003316415006 22.921588158620892 21.37035108487346 3 0 3
9662 0 2 0 1.2144117599566078 26.94374159767246 22.20229581921428 3 0 3
8962 0 2 0 6.750540055616749 21.870580989646403 21.824251880396233 3 0 3
11216 0 3 0 6.8043085812414725 21.034352126777986 19.21880029079396 3 0 3
8697 0 2 0 6.432823627830202 23.992210483019864 19.7139589635456 3 0 3
10669 0 3 0 6.1528132485029206 24.67989639758495 19.09624955311838 3 0 3
10077 0 2 0 8.200501467698896 25.22586478338154 19.382367314753633 3 0 3
11359 0 3 0 9.009661876411542 25.65183468732636 19.728946554601638 3 0 3
10278 0 2 0 8.616414242175859 24.966656118686192 21.47483229987675 3 0 3
11459 0 3 0 8.348370193535136 24.723341926394923 22.388157430901515 3 0 3
10277 0 2 0 8.057257247818425 23.78134163923369 22.128506305998865 3 0 3
10354 0 2 0 9.527075366336636 36.38612687163471 28.141528491562678 3 0 3
9183 0 2 0 0.0357429962263609 29.49632737177653 33.93832572593028 3 0 3
8773 0 2 0 0.6080903877013002 29.30073005730018 22.04321373223119 3 0 3
8774 0 2 0 1.277425848072974 29.73474991563408 20.611852861423912 3 0 3
10707 0 3 0 1.2234055195967328 29.97794969804385 21.61352985316905 3 0 3
9235 0 2 0 4.195222592100135 31.566965324334827 21.07409440545867 3 0 3
8724 0 2 0 2.62117460283232 30.058487251013883 23.023755635879073 3 0 3
11464 0 3 0 4.0014597045163285 22.928633738432584 18.955984392058173 3 0 3
9935 0 2 0 2.103189732751995 26.38476890133485 19.36598442530367 3 0 3
8788 0 2 0 5.35041215019741 36.659924883203544 28.393689110457462 3 0 3
10531 0 2 0 0.4066097631214171 35.63393627344857 25.401837545266467 3 0 3