LAMMPS (4 Feb 2025)
OMP_NUM_THREADS environment is not set. Defaulting to 1 thread. (src/comm.cpp:99)
  using 1 OpenMP thread(s) per MPI task
# LAMMPS script for continuing NVT simulation

atom_modify map yes
newton      on

read_restart nvt_prod.restart.1120000
Reading restart file ...
  restart file = 4 Feb 2025, LAMMPS = 4 Feb 2025
  restoring atom style full from restart
  orthogonal box = (0 0 0) to (154.008 148.2 151.07609)
  16 by 8 by 12 MPI processor grid
  pair style symmetrix/mace stores no restart info
  19140 atoms
Finding 1-2 1-3 1-4 neighbors ...
  special bond factors lj:    0        0        0       
  special bond factors coul:  0        0        0       
     0 = max # of 1-2 neighbors
     0 = max # of 1-3 neighbors
     0 = max # of 1-4 neighbors
     1 = max # of special neighbors
  special bonds CPU = 5.211 seconds
  read_restart CPU = 5.471 seconds

pair_style  symmetrix/mace
pair_coeff  * * ../../../../00-common/models/ch2o-dens-inv_swa-1-6-8.json C H O
Loading MACE model from '../../../../00-common/models/ch2o-dens-inv_swa-1-6-8.json' ... success
  mapping LAMMPS type 1 (C) to MACE type 1
  mapping LAMMPS type 2 (H) to MACE type 0
  mapping LAMMPS type 3 (O) to MACE type 2

group graphene type 1
8640 atoms in group graphene
group H2O type 2 3
10500 atoms in group H2O

thermo 1000

######### NVT production for 80 ps #############

dump DUMP1 all atom 100 nvt_prod_14.lammpstrj
timestep 0.001
fix NVT1 graphene nvt temp 300 300 0.1
Resetting global fix info from restart file:
  fix style: nvt, fix ID: NVT1
fix NVT2 H2O nvt temp 300 300 0.1
Resetting global fix info from restart file:
  fix style: nvt, fix ID: NVT2
run 80000
All restart file global fix info was re-assigned
Neighbor list info ...
  update: every = 1 steps, delay = 0 steps, check = yes
  max neighbors/atom: 2000, page size: 100000
  master list distance cutoff = 8
  ghost atom cutoff = 8
  binsize = 4, bins = 39 38 38
  1 neighbor lists, perpetual/occasional/extra = 1 0 0
  (1) pair symmetrix/mace, perpetual
      attributes: full, newton on
      pair build: full/bin
      stencil: full/bin/3d
      bin: standard
Per MPI rank memory allocation (min/avg/max) = 5.951 | 6.225 | 8.19 Mbytes
   Step          Temp          E_pair         E_mol          TotEng         Press     
   1120000   298.74684     -2984023.5      0             -2983284.5      8.0824615    
   1121000   301.97271     -2984022.4      0             -2983275.3      12.495473    
   1122000   298.42825     -2984017.1      0             -2983278.9     -30.121957    
   1123000   300.19593     -2984021.6      0             -2983279        16.180577    
   1124000   301.39489     -2984006        0             -2983260.3     -25.343413    
   1125000   298.87274     -2984015.9      0             -2983276.5      21.667873    
   1126000   299.82122     -2984013.5      0             -2983271.8     -0.482329     
   1127000   299.52573     -2984016.8      0             -2983275.8     -27.604736    
   1128000   302.48337     -2984019.3      0             -2983271       -2.935916     
   1129000   299.1573      -2984030.3      0             -2983290.2      3.8104081    
   1130000   302.85017     -2984018        0             -2983268.8     -49.49413     
   1131000   299.90034     -2984020.2      0             -2983278.3     -21.053649    
   1132000   300.64534     -2984023.8      0             -2983280       -34.243706    
   1133000   297.17545     -2984017.7      0             -2983282.5     -42.287641    
   1134000   298.74025     -2984020        0             -2983281       -33.845828    
   1135000   299.68147     -2984013.8      0             -2983272.4     -32.20815     
   1136000   300.42082     -2984021.1      0             -2983277.9     -20.094852    
   1137000   302.13212     -2984014.6      0             -2983267.1     -10.342793    
   1138000   295.393       -2984018.2      0             -2983287.4      3.6568543    
   1139000   297.1547      -2984025.9      0             -2983290.7     -30.278676    
   1140000   302.01787     -2984010.2      0             -2983263.1      11.976322    
   1141000   299.58489     -2984022.2      0             -2983281       -1.7486405    
   1142000   299.4119      -2984023.6      0             -2983282.9      56.435601    
   1143000   297.72861     -2984021        0             -2983284.5      5.9987299    
   1144000   296.80017     -2984019.9      0             -2983285.7     -15.796743    
   1145000   300.5529      -2984015        0             -2983271.4     -12.291205    
   1146000   302.04731     -2984010.7      0             -2983263.5      0.44890737   
   1147000   298.12689     -2984012.6      0             -2983275.1      3.6736207    
   1148000   301.15052     -2984026.4      0             -2983281.4      0.38513791   
   1149000   299.22239     -2984020.2      0             -2983280       -5.1871376    
   1150000   300.67492     -2984021.8      0             -2983277.9     -47.450543    
   1151000   300.65793     -2984027.6      0             -2983283.8     -24.068689    
   1152000   301.18167     -2984031.8      0             -2983286.7     -29.309683    
   1153000   299.71053     -2984010.3      0             -2983268.8     -43.18119     
   1154000   299.08268     -2984017        0             -2983277.1     -45.846154    
   1155000   297.91975     -2984015.5      0             -2983278.5     -2.6393669    
   1156000   303.39857     -2984020.9      0             -2983270.3     -8.118899     
   1157000   301.03879     -2984012.6      0             -2983267.8     -23.345816    
   1158000   301.582       -2984023.2      0             -2983277.1      6.1855642    
   1159000   296.84254     -2984020.7      0             -2983286.3      18.704667    
   1160000   297.88336     -2984020.4      0             -2983283.5     -13.209656    
   1161000   299.65004     -2984020.1      0             -2983278.8     -4.7335154    
   1162000   299.66437     -2984010.3      0             -2983268.9     -30.87791     
   1163000   300.1512      -2984025.5      0             -2983282.9     -27.042297    
   1164000   298.33742     -2984021        0             -2983282.9      9.2323735    
   1165000   301.77418     -2984014.1      0             -2983267.6      23.767715    
   1166000   298.8671      -2984016.6      0             -2983277.2     -41.446107    
   1167000   300.39837     -2984019.5      0             -2983276.4     -78.22559     
   1168000   301.45458     -2984023.5      0             -2983277.8     -76.666529    
   1169000   301.35741     -2984026.5      0             -2983280.9     -36.475656    
   1170000   298.47209     -2984026.5      0             -2983288.1     -44.341194    
   1171000   301.86711     -2984024.9      0             -2983278.1      16.054602    
   1172000   300.2134      -2984023.5      0             -2983280.8     -7.4398364    
   1173000   298.87962     -2984019.2      0             -2983279.8     -39.580625    
   1174000   298.22743     -2984015.7      0             -2983277.9     -8.8067761    
   1175000   301.96134     -2984020.8      0             -2983273.8      5.1522279    
   1176000   300.5026      -2984017.9      0             -2983274.4      9.1164371    
   1177000   301.27208     -2984010.1      0             -2983264.7     -9.9882266    
   1178000   303.97875     -2984018.8      0             -2983266.8      3.4929399    
   1179000   300.22979     -2984013.1      0             -2983270.4     -27.67654     
   1180000   297.52993     -2984014.2      0             -2983278.2     -18.761204    
   1181000   297.67093     -2984017.7      0             -2983281.3     -38.678495    
   1182000   300.92685     -2984015.9      0             -2983271.4     -36.6144      
   1183000   299.53447     -2984010.5      0             -2983269.5     -17.657242    
   1184000   296.67097     -2984005.1      0             -2983271.2     -28.768044    
   1185000   300.84252     -2984020        0             -2983275.7      14.850946    
   1186000   300.43748     -2984023.1      0             -2983279.8     -5.1932989    
   1187000   300.34575     -2984026.4      0             -2983283.3     -36.182034    
   1188000   300.89378     -2984018.6      0             -2983274.2     -27.844112    
   1189000   297.54857     -2984015.7      0             -2983279.6      1.9666068    
   1190000   302.87561     -2984020.9      0             -2983271.6      14.338228    
   1191000   298.52152     -2984018.6      0             -2983280.1      39.188197    
   1192000   302.3984      -2984025.4      0             -2983277.3     -25.637912    
   1193000   298.50026     -2984030.6      0             -2983292.1     -8.643416     
   1194000   301.5286      -2984018.9      0             -2983273        2.4208705    
   1195000   300.1744      -2984019.3      0             -2983276.7     -20.065028    
   1196000   301.18031     -2984013.8      0             -2983268.7     -26.784311    
   1197000   299.12164     -2984022.6      0             -2983282.6      7.6437048    
   1198000   299.79709     -2984018.3      0             -2983276.6      2.8296538    
   1199000   299.14444     -2984015.1      0             -2983275.1     -23.256785    
   1200000   300.23178     -2984032.1      0             -2983289.3      17.713012    
Loop time of 51791.3 on 1536 procs for 80000 steps with 19140 atoms

Performance: 0.133 ns/day, 179.831 hours/ns, 1.545 timesteps/s, 29.565 katom-step/s
100.0% CPU use with 1536 MPI tasks x 1 OpenMP threads

MPI task timing breakdown:
Section |  min time  |  avg time  |  max time  |%varavg| %total
---------------------------------------------------------------
Pair    | 0.14064    | 6270.3     | 50767      |16292.3 | 12.11
Bond    | 0.003142   | 0.006872   | 0.037232   |   7.8 |  0.00
Neigh   | 0.015348   | 0.21726    | 5.3225     | 151.0 |  0.00
Comm    | 0.54238    | 1960.2     | 20214      |9592.7 |  3.78
Output  | 0.62879    | 6.1911     | 12.526     | 138.8 |  0.01
Modify  | 167.27     | 43546      | 51776      |7772.6 | 84.08
Other   |            | 8.739      |            |       |  0.02

Nlocal:        12.4609 ave         245 max           0 min
Histogram: 1348 17 73 43 6 3 7 10 16 13
Nghost:         121.24 ave        1938 max           0 min
Histogram: 1219 176 32 36 28 13 4 9 7 12
Neighs:              0 ave           0 max           0 min
Histogram: 1536 0 0 0 0 0 0 0 0 0
FullNghs:      1799.78 ave       49341 max           0 min
Histogram: 1399 72 13 4 5 7 6 5 6 19

Total # of neighbors = 2764456
Ave neighs/atom = 144.43344
Ave special neighs/atom = 0
Neighbor list builds = 4160
Dangerous builds = 0

write_restart nvt_prod.restart.*
System init for write_restart ...
write_data nvt_prod_final.lammps-data
System init for write_data ...

Total wall time: 14:23:48
