LAMMPS data file via write_data, version 4 Feb 2025, timestep = 1200000, units = metal

19140 atoms
3 atom types

0 154.00799999999998 xlo xhi
0 148.2 ylo yhi
0 151.07609208607428 zlo zhi

Masses

1 12.01099999691024
2 1.007999999740698
3 15.99899999588435

Atoms # full

6608 0 1 0 3.1183024674951376 2.702773740803941 73.75640890444998 1 0 0
5887 0 1 0 2.3892727092049286 1.44944765929329 73.60196372427254 1 0 0
6617 0 1 0 4.555743659834745 2.6703674446933303 74.01295154106879 1 0 0
6615 0 1 0 4.531344783266057 0.20030344134748174 73.94459707068206 1 0 0
6606 0 1 0 3.105672695019971 0.20372395121064676 73.66176756746711 1 0 0
5936 0 1 0 1.0125199607802924 1.3913359775109053 73.61395201376187 1 0 0
5938 0 1 0 1.0065490714555572 3.91227920451529 73.62013718010243 1 0 0
5889 0 1 0 2.483336530770563 3.9503481741931634 73.68683070870713 1 0 0
5937 0 1 0 0.27549060484430976 2.638963421634843 73.67089250546888 1 0 0
5935 0 1 0 0.2872228498863294 0.17859574465694852 73.55368560746257 1 0 0
6636 0 1 0 9.522998176310328 1.4061389625686078 74.56037407776583 1 0 0
6616 0 1 0 5.256547940250594 1.4011723880422808 74.08695324822924 1 0 0
6618 0 1 0 5.238258382877662 3.8936958227802827 74.0792663596452 1 0 0
6627 0 1 0 6.702041169101158 1.3485128515287357 74.31858072357429 1 0 0
6628 0 1 0 7.367184802319728 2.59923901850891 74.33919033783968 1 0 0
6629 0 1 0 6.662839358209274 3.857770184524583 74.22454674728553 1 0 0
6626 0 1 0 7.445826489198879 0.15975739963075294 74.48962565774643 1 0 0
6637 0 1 0 8.769765684570327 2.6493301536820915 74.3458979014292 1 0 0
6635 0 1 0 8.840771483127076 0.15092818229443922 74.53601952493456 1 0 0
6690 0 1 0 7.505035460908431 17.470945693789968 74.91618377449988 1 0 0
5991 0 1 0 0.2851030459767504 7.671932245155305 73.62165121951352 1 0 0
5881 0 1 0 2.4053540183432123 6.386529517914475 73.71947733435488 1 0 0
6610 0 1 0 3.2127127065303216 5.165152503977264 73.7958918428501 1 0 0
6619 0 1 0 4.6416853985853255 5.152006039808081 73.98641010161275 1 0 0
5940 0 1 0 0.9643639856978028 6.371793313299603 73.63431989262038 1 0 0
6662 0 1 0 3.116368626984926 7.613162445500891 73.68704136421069 1 0 0
6671 0 1 0 4.565993532344912 7.574985571579803 73.90049364067099 1 0 0
5992 0 1 0 1.0532109308973079 8.896034369181224 73.59743508231313 1 0 0
5943 0 1 0 2.500552507077653 8.886999681736734 73.63870250661805 1 0 0
5939 0 1 0 0.26196519991568307 5.122119690686799 73.613549655798 1 0 0
6682 0 1 0 7.470625534357486 7.6298348122409925 74.27593748261026 1 0 0
6621 0 1 0 6.774781764926214 6.378476625144193 74.08925453567824 1 0 0
6620 0 1 0 5.312835224155473 6.371519794057329 73.94869341331554 1 0 0
6630 0 1 0 7.400908605726942 5.124756093019618 74.24137949723338 1 0 0
6691 0 1 0 8.905524743466161 7.6224160098234615 74.35301940473752 1 0 0
6683 0 1 0 6.6999701328252685 8.880485899416813 74.16167232719452 1 0 0
6672 0 1 0 5.304895544049996 8.833393578933615 73.91896095972254 1 0 0
6697 0 1 0 8.906042986079434 14.991673937194438 74.79525566651468 1 0 0
6639 0 1 0 8.872202655779656 5.155922239186809 74.34045630785573 1 0 0
6699 0 1 0 8.924499948291857 17.40987365611285 75.03609025372322 1 0 0
5995 0 1 0 0.3339868299005025 12.559154454537953 73.85912118497502 1 0 0
6673 0 1 0 4.6034204295645855 10.132326868496628 73.80351250679894 1 0 0
5994 0 1 0 1.0711804706766406 11.382427382897916 73.67746788078753 1 0 0
6664 0 1 0 3.1754742308616577 10.114625708135488 73.66343085482015 1 0 0
5945 0 1 0 2.49225181444862 11.380428097050366 73.67260537278014 1 0 0
5993 0 1 0 0.2722986702044235 10.123081845340112 73.56020871290839 1 0 0
6666 0 1 0 3.1937785076524414 12.611792410833717 74.01223572374299 1 0 0
6675 0 1 0 4.600516432567649 12.674673191746427 74.12281245459994 1 0 0
5996 0 1 0 1.0795587432688034 13.759973471264999 74.16915513414708 1 0 0
5947 0 1 0 2.5134131672010267 13.790292749815285 74.2929225287512 1 0 0
6695 0 1 0 8.827311109450061 12.524488351703184 74.61413740754057 1 0 0
6674 0 1 0 5.328794276982412 11.389311939970195 73.92658617664085 1 0 0
6684 0 1 0 7.430903370686284 10.116523352960744 74.25540202596342 1 0 0
6685 0 1 0 6.732898184341466 11.40821773250495 74.13787903500574 1 0 0
6686 0 1 0 7.4527176981057215 12.587381685432623 74.40588302917283 1 0 0
6693 0 1 0 8.8497424876416 10.121797263064977 74.48569879680191 1 0 0
6687 0 1 0 6.73658693847005 13.789124282910537 74.45039638669726 1 0 0
5997 0 1 0 0.3587364055950255 14.965170894522807 74.4190296971755 1 0 0
5998 0 1 0 1.0262248412194819 16.21073764694363 74.69335172395468 1 0 0
6677 0 1 0 4.611628596148577 15.03938440813504 74.67676592567001 1 0 0
6668 0 1 0 3.181835195721791 15.018029482495216 74.67016931623935 1 0 0
5949 0 1 0 2.449056686344557 16.240473620406103 74.68136403734155 1 0 0
5999 0 1 0 0.33059276485620964 17.46595040788864 74.82476433557363 1 0 0
6670 0 1 0 3.1995284752399846 17.481649013932756 74.7984770592438 1 0 0
6679 0 1 0 4.60661689783958 17.455975774843218 74.96502560692237 1 0 0
6678 0 1 0 5.374327350370596 16.272077676032254 74.77286877445509 1 0 0
6688 0 1 0 7.460051798085438 14.99643636163569 74.66411261083034 1 0 0
6689 0 1 0 6.768527733723412 16.245547478442507 74.81236353554615 1 0 0
6676 0 1 0 5.309559309760653 13.878745775634307 74.390887162347 1 0 0
6696 0 1 0 9.563737702666572 13.768819188670559 74.75465039541206 1 0 0
6694 0 1 0 9.60031488100828 11.352753431919371 74.55894673286716 1 0 0
6638 0 1 0 9.529434131290225 3.900844411038486 74.29976419595765 1 0 0
14223 0 2 0 2.069946157273512 1.7397099503727194 76.81017990968087 1 0 0
18432 0 3 0 1.265894152421622 2.3155251292785004 76.75651139935407 1 0 0
15296 0 2 0 4.364680616411653 1.3858880641116336 76.28211851120003 1 0 0
18968 0 3 0 3.7271521939600785 1.26093171634222 76.98826045296188 1 0 0
11384 0 2 0 4.709043797916054 4.341994377067166 78.10334732411975 1 0 0
12555 0 2 0 1.5973934285996807 4.228659237859276 76.66448017257274 1 0 0
11383 0 2 0 3.242584002366975 5.027429908355871 78.32970578169383 1 0 0
17012 0 3 0 4.132636789489404 4.742945368011204 78.78473843633496 1 0 0
18337 0 3 0 6.572326205349391 3.0743354857453133 87.90491417324687 1 0 0
15295 0 2 0 4.256183000124845 1.1976023166058198 77.81764920642172 1 0 0
11954 0 2 0 3.329362157225737 17.422072677009854 84.97067222537414 1 0 0
19130 0 3 0 6.348787813880456 3.900938039119921 77.07887759646835 1 0 0
15619 0 2 0 6.810224026306895 3.1048818225084305 76.78790903598272 1 0 0
15620 0 2 0 6.661238740376125 4.717406691430585 76.61568863445305 1 0 0
15818 0 3 0 7.402298292563526 1.3913335494241879 77.13052055908307 1 0 0
8995 0 2 0 8.347198798847732 1.462426828744721 77.36891740049887 1 0 0
18652 0 3 0 0.17199810949510222 3.5144833236556514 79.0692181947282 1 0 0
14590 0 2 0 7.4678433537939535 4.6830395847641055 78.64511684738964 1 0 0
18615 0 3 0 7.922165173743599 5.458751126113162 79.13878060396671 1 0 0
14589 0 2 0 7.587696194829505 6.2403053802579675 78.657268471518 1 0 0
13177 0 2 0 1.0281751203701228 15.971562227644258 85.18960393352337 1 0 0
14224 0 2 0 0.5830681442789365 1.5844819014861122 76.79139024543365 1 0 0
16942 0 3 0 4.465818499414129 13.887031357946737 86.66061115611954 1 0 0
17598 0 3 0 1.7685936701709684 5.20028059187731 76.86728843755448 1 0 0
13340 0 2 0 1.4948160189651882 8.164729713325604 77.44956777469653 1 0 0
17990 0 3 0 0.8220643664167946 8.210362357922751 76.7664172749774 1 0 0
13339 0 2 0 0.488059486039829 7.307649972262628 76.57797292611237 1 0 0
12556 0 2 0 2.2525080640022694 5.523260384398502 76.10779527750174 1 0 0
10657 0 2 0 3.273243190310468 8.498452617764352 78.7118900013426 1 0 0
13090 0 2 0 4.412230718666285 6.5215513192656545 79.3075320329825 1 0 0
13089 0 2 0 5.693852933854879 7.446817595553928 79.00881169878603 1 0 0
17415 0 3 0 7.235862178739414 7.966301645180726 77.41567935704776 1 0 0
11243 0 2 0 3.568048724821587 13.557878879518624 86.91104593854757 1 0 0
12189 0 2 0 8.232530183951026 7.878803519240029 77.29956326565129 1 0 0
18554 0 3 0 0.0972950141224319 12.778246285213589 77.02668773359504 1 0 0
12190 0 2 0 7.111957377126832 8.870761504543065 77.86987429835312 1 0 0
16624 0 3 0 2.13163016490478 12.012991772325282 87.59265347399227 1 0 0
16649 0 3 0 2.6407604335293673 9.197999296713396 78.56673903998337 1 0 0
10658 0 2 0 3.0262088953825645 9.759378106121629 77.79354794852635 1 0 0
14467 0 2 0 0.35671775634939096 13.545970551078437 76.5637312720104 1 0 0
12480 0 2 0 5.097970371280255 13.150489830455678 78.37449493415426 1 0 0
17560 0 3 0 5.102918961501971 13.74797139106521 77.6575000010912 1 0 0
15405 0 2 0 3.5084982425677693 14.756507144647465 77.66658260301291 1 0 0
9637 0 2 0 2.9916933078100167 10.55490893315132 79.69717395874675 1 0 0
16615 0 3 0 4.498639021832231 10.727999922310413 77.02169447288166 1 0 0
10590 0 2 0 5.324884047656303 10.790554558122988 77.60607095221961 1 0 0
17105 0 3 0 7.58328705006558 14.776879365144442 77.65205415199623 1 0 0
11570 0 2 0 8.15641355911092 14.019041186613661 77.489662924887 1 0 0
12479 0 2 0 6.040954788660981 14.14819725835742 77.74484142744568 1 0 0
10589 0 2 0 4.686182615766978 11.481141875323113 76.48410173033 1 0 0
11569 0 2 0 7.806384375379403 14.938314149318636 78.62512641066593 1 0 0
18122 0 3 0 1.0265264078295424 18.19270347328161 78.45001944797365 1 0 0
19023 0 3 0 2.588532241984624 15.128722074792005 77.78691554601589 1 0 0
15406 0 2 0 2.348372125194582 14.727511745135356 78.64144837334231 1 0 0
13603 0 2 0 0.8543064675678139 17.41207098845234 79.0282079755193 1 0 0
17909 0 3 0 0.24399133044004565 16.117771055212398 84.65961414840204 1 0 0
13013 0 2 0 5.318349688805845 16.595816095747022 77.6519882384219 1 0 0
17827 0 3 0 4.673868040292755 17.136805758229944 78.18322166767491 1 0 0
10962 0 2 0 8.627700331910141 0.8771997919098341 79.77195659682762 1 0 0
13014 0 2 0 3.8107784888631984 16.787431889525607 77.95103954234104 1 0 0
8996 0 2 0 7.196931578678028 0.46784902188132993 76.90038446065931 1 0 0
12783 0 2 0 8.864897767481796 10.185712389776562 83.98667037633 1 0 0
15370 0 2 0 8.176864626199862 18.03117647462087 78.23856337249738 1 0 0
18801 0 3 0 6.765722459130176 10.53625218495642 78.67144518287726 1 0 0
14961 0 2 0 7.473583423700505 11.215895943766167 78.59833363148785 1 0 0
18980 0 3 0 0.16720715739211087 3.3240582374476952 82.14089038884583 1 0 0
15401 0 2 0 2.5860434428273398 2.674523208448431 80.25584385256381 1 0 0
15402 0 2 0 3.4586108719784865 1.3179173308677012 80.11482236160496 1 0 0
19021 0 3 0 2.5442699283236023 1.7074261980359613 80.11242455950979 1 0 0
18808 0 3 0 4.2956699769486875 1.7668267371331354 83.04671658580668 1 0 0
14976 0 2 0 4.818277534687999 0.99075861951205 82.89434794281317 1 0 0
15319 0 2 0 0.48299241381364594 2.625871528107334 82.73386539691687 1 0 0
11344 0 2 0 6.638134299598871 12.273502162098417 85.4855560460145 1 0 0
14975 0 2 0 4.802876145048928 2.2948487026886415 83.68210350139947 1 0 0
13897 0 2 0 4.505423903930662 3.9108061831087406 80.55999739133391 1 0 0
18269 0 3 0 4.577099106467138 4.05791793802079 81.52598289205172 1 0 0
13898 0 2 0 4.483241244502565 3.148708263052876 82.00208504223326 1 0 0
14712 0 2 0 2.1001351819800593 3.1950101579113164 87.4835877087119 1 0 0
12351 0 2 0 5.957061443213016 0.5514605307911343 79.44863934491516 1 0 0
17393 0 3 0 7.217013642943045 5.09423059421621 81.56638252319046 1 0 0
13706 0 2 0 9.509336410204108 1.2245579293295328 82.96489000065817 1 0 0
12146 0 2 0 7.41274468395114 5.383547882107621 80.61877001643734 1 0 0
13696 0 2 0 9.357658456960342 12.917324972661703 81.88629733952506 1 0 0
12145 0 2 0 6.259153531205621 4.876482596180667 81.54751669676949 1 0 0
17496 0 3 0 5.019737512438873 0.3453813068024585 79.33808073090103 1 0 0
15344 0 2 0 1.531604292403808 4.4507342354853225 82.03226123251687 1 0 0
17834 0 3 0 4.31153547180823 8.388278335483431 82.28161091161341 1 0 0
13028 0 2 0 4.4819873852491465 7.965347907576049 81.3859508748427 1 0 0
14693 0 2 0 1.2592047527347403 6.056625833595361 80.49603538117834 1 0 0
18667 0 3 0 1.0850766643172578 6.322914552595101 79.57160618537209 1 0 0
17865 0 3 0 4.7953176506868616 7.390534296283348 79.42825766894177 1 0 0
15343 0 2 0 3.0678655686827327 4.898623729096097 81.81032683491202 1 0 0
14694 0 2 0 0.9377000155850611 5.430420068997117 79.19201306340382 1 0 0
13027 0 2 0 3.388290422915945 8.852555026564113 82.26787242979384 1 0 0
18992 0 3 0 2.152507557637938 5.288029293797379 81.97194585511998 1 0 0
12784 0 2 0 8.050963175620211 8.952331409498777 83.43422584574422 1 0 0
15325 0 2 0 9.381061730341656 12.371183401826547 78.24399512805776 1 0 0
14146 0 2 0 5.659233331663354 7.804873994042991 83.56094970923337 1 0 0
18393 0 3 0 6.553880959790577 7.469612278609518 83.74399331100139 1 0 0
14145 0 2 0 6.706633415744648 6.7853085167989 83.0597881786341 1 0 0
9760 0 2 0 1.5627207406854207 12.778602328377252 80.13152191909673 1 0 0
10579 0 2 0 1.249065585462504 12.929123227804967 82.81963919035744 1 0 0
15070 0 2 0 1.2921712953864533 9.389746649673517 82.89790663231292 1 0 0
16139 0 3 0 2.873630157260464 11.379552714861305 80.23874165212673 1 0 0
9638 0 2 0 3.7861844637246858 11.688305173230196 80.35705850395725 1 0 0
15069 0 2 0 1.9113128055550208 10.130616655945179 81.66298604873087 1 0 0
19138 0 3 0 5.322684309878751 12.903034778544471 80.96500066730523 1 0 0
15636 0 2 0 5.132423456355548 13.666394541313402 81.54153870882182 1 0 0
18855 0 3 0 2.1536748941710773 9.806223981529268 82.57476139636074 1 0 0
16610 0 3 0 2.0454561352965093 12.986568923958501 83.39824123499976 1 0 0
10580 0 2 0 2.5294307574175092 12.123274115227991 83.28368404236905 1 0 0
16992 0 3 0 6.721956789666345 11.962031810970833 86.47974155038803 1 0 0
17712 0 3 0 8.625771095109386 9.689747618546496 83.14785224194748 1 0 0
14962 0 2 0 6.670472850596388 10.455594222968228 79.61087461484583 1 0 0
15635 0 2 0 5.94372329094882 12.338812716919232 81.52186775150591 1 0 0
9896 0 2 0 5.850109361046089 9.624897638282649 81.84002642764585 1 0 0
9895 0 2 0 7.320775380049941 10.381312333426058 82.08911192169522 1 0 0
16268 0 3 0 6.4955742767127 10.356601022637234 81.52428643549639 1 0 0
18168 0 3 0 9.189859587571009 13.806792885196714 82.1834721318002 1 0 0
15331 0 2 0 5.724825019717828 13.90297097490634 83.73377368339447 1 0 0
15332 0 2 0 7.212955242822164 13.361699314719639 83.5433809237836 1 0 0
18986 0 3 0 6.2613700990219945 13.137447823635316 83.67996827415766 1 0 0
16200 0 3 0 0.7394367030146172 13.288235222042365 79.8770271042317 1 0 0
15326 0 2 0 8.939199951635976 11.428276590228824 77.04009120671428 1 0 0
12605 0 2 0 1.9247243969086076 17.31078270112177 82.72780492008046 1 0 0
11190 0 2 0 0.5431860366917604 16.10518069162561 80.89718015680818 1 0 0
12606 0 2 0 1.2259269461340123 15.904062682679816 82.98023748552296 1 0 0
15092 0 2 0 3.4150280133577233 14.802350551637058 82.77270951050802 1 0 0
18866 0 3 0 4.154594744570949 15.315723525652587 83.03930673938045 1 0 0
15091 0 2 0 4.438329954827441 15.750625767251085 82.20840613892383 1 0 0
17623 0 3 0 1.5937224236460825 16.488720002694784 82.30952915667748 1 0 0
9202 0 2 0 8.015636844866995 0.32176507507324975 84.19593785101146 0 0 0
14126 0 2 0 5.520780918920563 17.689304494306285 81.13614400516872 1 0 0
18383 0 3 0 5.45790175867209 16.769727411653772 80.8102006120284 1 0 0
14125 0 2 0 4.897163817619263 16.69972208485751 80.0119873811616 1 0 0
18977 0 3 0 8.087923735595155 15.787439612839929 80.37546672158788 1 0 0
13695 0 2 0 8.905247706259775 14.325209976703283 81.37917353593329 1 0 0
15314 0 2 0 7.168883412614173 16.14485225400956 80.37344927548368 1 0 0
15313 0 2 0 8.65832416474698 16.544871173325454 80.05031581444267 1 0 0
12923 0 2 0 2.3900417038863364 1.4663169820388708 83.49584908230523 1 0 0
12924 0 2 0 1.2912785818456156 0.7542915773283029 84.22302889571503 1 0 0
16863 0 3 0 5.591852031769258 0.51912200078073 86.91030710650716 1 0 0
17782 0 3 0 1.5627502693100652 1.6400501888374912 83.91506220475755 1 0 0
13889 0 2 0 1.8920202260364503 3.1490727471132174 85.14709650463195 1 0 0
18265 0 3 0 1.6953320902037834 3.961023181794362 85.65901418194424 1 0 0
10996 0 2 0 8.200009760218473 5.85300338273567 86.83985299471702 1 0 0
9201 0 2 0 7.263677287595163 0.5682045385986771 82.93102462696406 0 0 0
14033 0 2 0 6.393122007860365 2.147536513562449 87.87840379522072 1 0 0
16874 0 3 0 9.013707638725817 4.37791888695606 83.69439073660268 1 0 0
15921 0 3 0 7.723416887244903 1.0364608938799087 83.61519833459404 0 0 0
14753 0 2 0 6.0346313548325865 3.86085342425489 85.1414886646529 1 0 0
18697 0 3 0 5.86016925957316 2.935875542558725 84.77496381833373 1 0 0
14754 0 2 0 6.634908058223073 2.736061091662479 84.18304801786302 1 0 0
11953 0 2 0 3.569399229065484 15.997573396524926 84.49525816797994 1 0 0
11108 0 2 0 8.348751109625438 4.542631771522781 82.9914441472107 1 0 0
13604 0 2 0 1.3841975920630112 17.70114396158322 77.70136613955336 1 0 0
11343 0 2 0 6.105513862051511 12.50420445925731 86.99776097289136 1 0 0
11189 0 2 0 0.004756541483780685 14.984562754164072 79.98815515142375 1 0 0
12960 0 2 0 8.777808983153946 10.88579694694859 86.28209970788627 1 0 0
18983 0 3 0 8.687290840210832 12.26736405210433 77.54256931035265 1 0 0
11085 0 2 0 5.404279478259716 1.0290652638226063 86.1445230482649 1 0 0
13890 0 2 0 1.8400037347588758 4.767365468115071 85.05961502316661 1 0 0
18427 0 3 0 1.568416419052818 6.3165640591137 84.36798136397461 1 0 0
12503 0 2 0 3.0544153921160033 4.980738721834948 86.92227429883853 1 0 0
14214 0 2 0 2.2306387429725625 6.929656458125775 84.86126747979279 1 0 0
17404 0 3 0 3.528092195753627 8.161788900276962 85.69433904718196 1 0 0
12168 0 2 0 3.9996614928969496 7.575104483437144 86.29271271257137 1 0 0
14213 0 2 0 2.0008845804137376 6.103260714416886 83.54472339501812 1 0 0
17572 0 3 0 3.4601416924919786 5.660155458498739 87.44521072457475 1 0 0
12167 0 2 0 4.005985690454616 9.00482654253441 85.53433256211699 1 0 0
18949 0 3 0 2.8559451889053338 0.20366086177465587 87.99987389733921 1 0 0
14664 0 2 0 0.5594802831099585 2.7778150185570802 78.5688063789143 1 0 0
15257 0 2 0 3.5710688320071844 0.2596542105585048 87.35715839744928 1 0 0
16278 0 3 0 8.782383736271864 0.7167877627466042 86.76148122777577 1 0 0
14176 0 2 0 5.438924709355685 5.9245202436527045 86.55343593128877 1 0 0
18408 0 3 0 6.144040455562805 5.491904352056967 85.96591586493228 1 0 0
14175 0 2 0 6.261930313568269 6.156287073014506 85.25694343340302 1 0 0
14744 0 2 0 0.7181411689391728 12.88887791523193 84.99686743030728 1 0 0
18692 0 3 0 0.2969403256800924 12.712740603481707 85.8585913437609 1 0 0
9759 0 2 0 0.6238434709286617 13.217166609454491 78.88438039562227 1 0 0
10608 0 2 0 2.6568381791270386 11.22062096591307 87.22809478252555 1 0 0
17958 0 3 0 4.238678053474622 10.681691837002386 84.94428207875089 1 0 0
13276 0 2 0 4.563264516062906 11.377195537012089 85.5017323292249 1 0 0
13275 0 2 0 4.581192930424201 10.848005495716455 84.01538923697109 1 0 0
14743 0 2 0 1.0808143452209436 12.553066137973785 86.50633041034035 1 0 0
11244 0 2 0 4.229553317227234 14.774452046177657 86.3078654268808 1 0 0
17800 0 3 0 9.399569307398282 10.599981273038345 85.54469728520586 1 0 0
17297 0 3 0 3.2040935124378866 16.474883750966793 85.2483687324556 1 0 0
9916 0 2 0 8.008332919837919 1.2705766502954003 86.7103988506147 1 0 0
11674 0 2 0 2.304360383440463 8.523289374113745 88.06994165924347 1 0 0
9915 0 2 0 8.687069601285362 0.19451147252805112 87.6099238622642 1 0 0
16818 0 3 0 9.107508489377327 6.027050774276131 87.08401930481008 1 0 0
11107 0 2 0 9.400810691228342 3.5056062776686208 83.42313662627745 1 0 0
15320 0 2 0 0.12005154054082823 2.919166262577715 81.29093434435234 1 0 0
16801 0 3 0 8.293957765982652 0.06319884691728817 80.04782689243721 1 0 0
14034 0 2 0 7.4894779483723894 3.2050310095429198 87.68046354900744 1 0 0
10995 0 2 0 9.624958482585907 5.212014208487819 87.08138838000434 1 0 0
18883 0 3 0 0.9462011995465656 11.041472272729687 89.75687513775817 1 0 0
12504 0 2 0 3.836057800706122 5.2503567784062986 88.20222191584263 1 0 0
10007 0 2 0 0.08755101387538845 2.5230388691170194 90.7654367701292 1 0 0
14728 0 2 0 3.382967170643561 1.0826399693000488 92.49943515065084 1 0 0
18676 0 3 0 2.185083334592884 2.8421518091327846 88.38696004056261 1 0 0
15126 0 2 0 0.0664331265524356 10.689000887675368 89.67683665671422 1 0 0
14727 0 2 0 1.828632490142385 1.2506774722411358 92.53863139674705 1 0 0
11507 0 2 0 5.327459311801585 3.004494781957739 92.6980974012184 1 0 0
18684 0 3 0 2.5630543237178167 0.6453724677154083 92.69314728068466 1 0 0
13884 0 2 0 3.936368822316868 3.2898989890727197 89.39091083321215 1 0 0
18262 0 3 0 4.675679649552931 3.737073217892055 89.90554525326858 1 0 0
10008 0 2 0 0.9001693165274737 3.083708645073837 89.54632803382825 1 0 0
11508 0 2 0 4.758703031539655 2.8150130676160905 91.29684584662037 1 0 0
17074 0 3 0 4.847567833603207 2.3807798167926375 92.16243259461496 1 0 0
13883 0 2 0 5.489231697246651 3.681162272155983 89.36711113775499 1 0 0
14433 0 2 0 2.3913305764837136 8.620814474950858 90.80665485750643 1 0 0
17157 0 3 0 1.8390631912104562 8.200336052927419 88.83836110675543 1 0 0
11673 0 2 0 1.6292311843857983 7.261214383687822 88.70787106045645 1 0 0
14648 0 2 0 6.023114010343286 0.6036133222867321 91.3543094146621 1 0 0
18537 0 3 0 2.0965931139999423 9.204472482813078 91.5393251348956 1 0 0
14434 0 2 0 1.2421425634368062 8.799155416189823 91.7699130402788 1 0 0
10607 0 2 0 1.7199210654755726 11.607376560784472 88.44175449612017 1 0 0
15125 0 2 0 1.480584212429393 10.468185820868193 90.37749372194646 1 0 0
9596 0 2 0 0.12327586292346382 12.633616782529437 91.18686975254623 1 0 0
14711 0 2 0 2.449852242847294 1.9179835099026423 88.27703838032454 1 0 0
6000 0 1 0 1.0430249318625369 18.674220114486815 75.00433527158611 1 0 0
5941 0 1 0 2.4575880937351124 18.713424925153433 75.06439093151974 1 0 0
6052 0 1 0 1.0172167333866768 21.182424720410015 75.04696751903373 1 0 0
6722 0 1 0 3.1753138738742073 19.9539934803503 75.11410304294093 1 0 0
6051 0 1 0 0.30232940179333556 19.944010986360073 74.98586622052571 1 0 0
6731 0 1 0 4.600864394392425 19.946255300880157 75.22196823483033 1 0 0
6003 0 1 0 2.462217371719837 21.184876189694453 75.17196022468036 1 0 0
6053 0 1 0 0.3064621471380181 22.410927139822167 74.98571810036195 1 0 0
6733 0 1 0 4.66029745696446 22.415320172346036 75.39174449324769 1 0 0
6724 0 1 0 3.2186688600103532 22.40364841916413 75.29399557689571 1 0 0
6742 0 1 0 7.474652914469043 19.89750711633052 75.25666452105253 1 0 0
6680 0 1 0 5.338935614178387 18.715341970279713 75.13808115490139 1 0 0
6752 0 1 0 9.58378707350855 21.16929940938763 75.3282863854412 1 0 0
6681 0 1 0 6.732839503382527 18.68675335895307 75.12384307464306 1 0 0
6732 0 1 0 5.3129005145612025 21.162839320341217 75.35238047005073 1 0 0
6743 0 1 0 6.780504351432864 21.159507138316812 75.3771996477986 1 0 0
6744 0 1 0 7.484495450532054 22.43989370152154 75.4630075558133 1 0 0
6751 0 1 0 8.923824017850547 19.917119100481855 75.187745359344 1 0 0
6056 0 1 0 1.041234732551904 26.107434731517845 75.4294789735942 1 0 0
6753 0 1 0 8.905106526210362 22.405555871233375 75.45203676000718 1 0 0
6005 0 1 0 2.476343211710999 23.617584663303283 75.36297364937872 1 0 0
6054 0 1 0 1.0517847605227204 23.630429388049965 75.17309134901431 1 0 0
6055 0 1 0 0.3575762397426155 24.860102698737478 75.20231044876374 1 0 0
6057 0 1 0 0.31468781782271366 27.37030664206471 75.33851156035209 1 0 0
6726 0 1 0 3.1841178197774602 24.887299731960997 75.48010815744951 1 0 0
6735 0 1 0 4.599657596537793 24.88461362155148 75.51880824229906 1 0 0
19005 0 3 0 8.403581299234068 18.57512050808503 78.97545982305522 1 0 0
18422 0 3 0 2.4546120785145655 20.36983905952223 79.46918462436594 1 0 0
14204 0 2 0 3.302145648740261 20.48787673971767 79.02777801601339 1 0 0
14968 0 2 0 5.572267178837751 19.566932164426998 82.72574753943259 1 0 0
18804 0 3 0 5.5205716841402515 19.29626630712704 81.77448358475539 1 0 0
14967 0 2 0 5.5598597406785 20.112768538624348 81.24492578153625 1 0 0
18935 0 3 0 2.5450447536401537 18.767233255108 83.69684942260491 1 0 0
18157 0 3 0 2.1390506773609945 24.023176380305163 79.10529028628929 1 0 0
13673 0 2 0 1.4019056505406742 23.400279540155868 78.810627084543 1 0 0
12942 0 2 0 1.4181005217507343 25.484786551754265 78.70054639745999 1 0 0
17853 0 3 0 5.5281364883587765 19.947466557203224 78.97914365009238 1 0 0
11543 0 2 0 1.0797467228112525 21.417756262564232 78.49388153132628 1 0 0
13674 0 2 0 1.9529887647595512 24.05300110106659 80.06200257272432 1 0 0
18292 0 3 0 0.2290059166325981 21.89848957695666 85.06248577719475 1 0 0
13065 0 2 0 5.2528391031733035 19.113778202937137 78.5882729253258 1 0 0
16601 0 3 0 0.933899734809245 23.49692030140611 81.98091100795153 1 0 0
6757 0 1 0 8.80957178293522 27.411196288478383 75.95266962719528 1 0 0
15229 0 2 0 2.8438427250662386 19.63893674639317 83.3426666531824 1 0 0
17521 0 3 0 2.8409276576929763 20.991300645909373 82.16584261523062 1 0 0
6009 0 1 0 2.4662903544137116 28.546382301245668 75.77847891604468 1 0 0
6803 0 1 0 6.724404142079097 33.55856287493005 76.45708226904613 1 0 0
13066 0 2 0 6.500479280906192 19.837821343733527 79.00037882755949 1 0 0
15230 0 2 0 1.7173841776655432 18.902282120142925 84.07407845731001 1 0 0
17092 0 3 0 0.17692856701858437 21.875615536155852 78.45306220914503 1 0 0
6792 0 1 0 5.322675615654668 33.558260600139114 76.48630652220528 1 0 0
6059 0 1 0 0.3355665669603091 29.836868250489058 75.5853760598153 1 0 0
6791 0 1 0 4.61586336188808 32.30517806806722 76.42839370029873 1 0 0
12402 0 2 0 2.648600516865319 20.717212171150642 81.2647738147908 1 0 0
13943 0 2 0 0.2646926488196983 20.97798034558324 85.17865250880389 1 0 0
6750 0 1 0 7.450253599892698 29.87846249863108 76.18223498316912 1 0 0
6811 0 1 0 8.862949046519546 32.2914974627678 76.47634570005391 1 0 0
6760 0 1 0 9.610788339058814 31.073555449422432 76.24359511159295 1 0 0
6749 0 1 0 6.683763299206882 28.61492332697376 76.06915009122719 1 0 0
6802 0 1 0 7.463620353211501 32.32615382934284 76.40295345187161 1 0 0
6759 0 1 0 8.867364895739183 29.87096595436845 76.23529498745847 1 0 0
6758 0 1 0 9.53553996797329 28.612434709620928 76.13617902183317 1 0 0
6740 0 1 0 5.265034985797221 31.02058215764875 76.30753240096192 1 0 0
13944 0 2 0 0.45588335827502363 22.059485327389744 84.13381753948119 1 0 0
6741 0 1 0 6.734248503539418 31.047118117004636 76.25652728601995 1 0 0
6065 0 1 0 2.43016027048682 35.99527428561698 76.18667712044616 1 0 0
6812 0 1 0 9.561675559508584 33.49935783430232 76.52813438308442 1 0 0
12401 0 2 0 2.400945652588197 21.89540816483359 82.19413983465277 1 0 0
6784 0 1 0 3.1373125195823452 34.72286408366633 76.31829833737078 1 0 0
6814 0 1 0 9.592696946094135 35.995434500992296 76.32415801981483 1 0 0
6793 0 1 0 4.575697470461078 34.7521009316227 76.39333395852141 1 0 0
6804 0 1 0 7.456153281939596 34.750259445181555 76.42170217813049 1 0 0
6805 0 1 0 6.7448697772069535 35.98516843750636 76.45171629640072 1 0 0
6813 0 1 0 8.856735301955688 34.762342111178356 76.47056059278654 1 0 0
6794 0 1 0 5.312608833583067 35.934716573134395 76.45435023796364 1 0 0
12941 0 2 0 1.5058877122073115 26.971721244415257 78.25683611138375 1 0 0
6114 0 1 0 1.0128418800254337 35.94028642178328 76.04379283714285 1 0 0
10561 0 2 0 0.6129615997785343 24.47221174356107 82.09721849648923 1 0 0
6756 0 1 0 9.554325531593166 26.156958638309145 75.79791174439218 1 0 0
6063 0 1 0 2.4095479257026167 33.46303170198706 76.3121656874515 1 0 0
17791 0 3 0 1.0833886236626675 26.406634513094886 78.86876126040261 1 0 0
6113 0 1 0 0.2696427039517924 34.715641165961244 75.92219300691663 1 0 0
6748 0 1 0 7.391517467055007 27.403897087960484 75.94319987215111 1 0 0
6782 0 1 0 3.1686102655887924 32.267604643047754 76.32481120156972 1 0 0
6007 0 1 0 2.4297101270076116 26.10455014797861 75.54368208930788 1 0 0
6739 0 1 0 4.578766079715528 29.81028081462832 76.0929486038336 1 0 0
6112 0 1 0 0.9902327818727893 33.46364454168312 76.03810661481317 1 0 0
6747 0 1 0 6.713865553042253 26.128320055740144 75.80223756239015 1 0 0
6746 0 1 0 7.488034128960661 24.90262394476842 75.60808924739428 1 0 0
6730 0 1 0 3.1358357174497917 29.81507649741327 76.04130534511532 1 0 0
6058 0 1 0 1.0237654369848688 28.539807408161096 75.56388725857553 1 0 0
6738 0 1 0 5.289463812738142 28.57314752293913 76.04125823487163 1 0 0
6745 0 1 0 6.758669843944601 23.642195278825163 75.58154105298442 1 0 0
6001 0 1 0 2.459961031627268 31.055577371922368 76.1083928366092 1 0 0
6737 0 1 0 4.56110705513525 27.320865801659433 75.83205040155191 1 0 0
14203 0 2 0 2.0594074882135973 19.505325195804886 79.15993918170413 1 0 0
6736 0 1 0 5.280140066601568 26.12070103167766 75.75253235881887 1 0 0
6111 0 1 0 0.3377523042864303 32.25859084164586 75.83148436830818 1 0 0
6728 0 1 0 3.161289328968583 27.309405739168405 75.71698647672918 1 0 0
6060 0 1 0 1.0531094617080963 31.040226624166717 75.8088284953523 1 0 0
10562 0 2 0 0.2054108626709115 22.988567142405547 81.5336030683684 1 0 0
15369 0 2 0 9.256018965616033 19.027138599470142 78.72600382662364 1 0 0
6755 0 1 0 8.91156997388546 24.924531084319728 75.59460428268714 1 0 0
6754 0 1 0 9.621774703216142 23.63694514276034 75.55262899071938 1 0 0
6734 0 1 0 5.323936550913928 23.682562545026368 75.54890587146777 1 0 0
6795 0 1 0 4.593804432554761 37.20415546135925 76.38036388193375 1 0 0
6786 0 1 0 3.1479048296350043 37.21957354296049 76.16253911954082 1 0 0
6788 0 1 0 3.148842184486969 39.66451936310211 76.42047143360615 1 0 0
6067 0 1 0 2.4644470712227937 38.4580630593351 76.24034961537016 1 0 0
6797 0 1 0 4.5476588980573975 39.66694968966286 76.52658092923811 1 0 0
6116 0 1 0 1.048232362611802 38.46323298208375 76.1283693387065 1 0 0
6069 0 1 0 2.470785459184639 40.92338911820035 76.49628806370107 1 0 0
6118 0 1 0 1.0274906325544855 40.9204500921969 76.39360270454499 1 0 0
6877 0 1 0 8.782871015822172 52.005348083442605 76.77965081788685 1 0 0
6117 0 1 0 0.2982221438317585 39.66909252798721 76.17500854830848 1 0 0
6798 0 1 0 5.302478057717623 40.9021893401861 76.5404938295991 1 0 0
6796 0 1 0 5.283479797039193 38.421451061502665 76.4463182484287 1 0 0