LAMMPS (4 Feb 2025)
OMP_NUM_THREADS environment is not set. Defaulting to 1 thread. (src/comm.cpp:99)
  using 1 OpenMP thread(s) per MPI task
# LAMMPS script for continuing NVT simulation

atom_modify map yes
newton      on

read_restart nvt_prod.restart.880000
Reading restart file ...
  restart file = 4 Feb 2025, LAMMPS = 4 Feb 2025
  restoring atom style full from restart
  orthogonal box = (0 0 0) to (153.69998 147.89788 151.07317)
  16 by 8 by 8 MPI processor grid
  pair style symmetrix/mace stores no restart info
  11640 atoms
Finding 1-2 1-3 1-4 neighbors ...
  special bond factors lj:    0        0        0       
  special bond factors coul:  0        0        0       
     0 = max # of 1-2 neighbors
     0 = max # of 1-3 neighbors
     0 = max # of 1-4 neighbors
     1 = max # of special neighbors
  special bonds CPU = 4.381 seconds
  read_restart CPU = 4.552 seconds

pair_style  symmetrix/mace
pair_coeff  * * ../../../00-common/models/ch2o-dens-inv_swa-1-6-8.json C H O
Loading MACE model from '../../../00-common/models/ch2o-dens-inv_swa-1-6-8.json' ... success
  mapping LAMMPS type 1 (C) to MACE type 1
  mapping LAMMPS type 2 (H) to MACE type 0
  mapping LAMMPS type 3 (O) to MACE type 2

group graphene type 1
8640 atoms in group graphene
group H2O type 2 3
3000 atoms in group H2O

thermo 1000

######### NVT production for 80 ps #############

dump DUMP1 all atom 100 nvt_prod_11.lammpstrj
timestep 0.001
fix NVT1 graphene nvt temp 300 300 0.1
Resetting global fix info from restart file:
  fix style: nvt, fix ID: NVT1
fix NVT2 H2O nvt temp 300 300 0.1
Resetting global fix info from restart file:
  fix style: nvt, fix ID: NVT2
run 80000
All restart file global fix info was re-assigned
Neighbor list info ...
  update: every = 1 steps, delay = 0 steps, check = yes
  max neighbors/atom: 2000, page size: 100000
  master list distance cutoff = 8
  ghost atom cutoff = 8
  binsize = 4, bins = 39 37 38
  1 neighbor lists, perpetual/occasional/extra = 1 0 0
  (1) pair symmetrix/mace, perpetual
      attributes: full, newton on
      pair build: full/bin
      stencil: full/bin/3d
      bin: standard
Per MPI rank memory allocation (min/avg/max) = 5.921 | 6.127 | 8.229 Mbytes
   Step          Temp          E_pair         E_mol          TotEng         Press     
    880000   300.49871     -1809921.1      0             -1809469.1      57.66204     
    881000   300.03372     -1809921.5      0             -1809470.1      74.563527    
    882000   299.13484     -1809925.6      0             -1809475.5      116.3669     
    883000   302.74366     -1809922.8      0             -1809467.3      77.0946      
    884000   297.79911     -1809925.2      0             -1809477.1      70.010993    
    885000   297.23375     -1809923        0             -1809475.9      51.291363    
    886000   298.4538      -1809925.6      0             -1809476.6      66.875239    
    887000   298.26904     -1809919.6      0             -1809470.9      85.579178    
    888000   300.6194      -1809918.9      0             -1809466.7      76.31428     
    889000   298.87922     -1809921.7      0             -1809472        68.504566    
    890000   302.03834     -1809919.1      0             -1809464.7      59.176832    
    891000   304.7692      -1809926.5      0             -1809468        40.908311    
    892000   298.87662     -1809926.4      0             -1809476.8      59.879456    
    893000   297.02313     -1809921.9      0             -1809475        60.897009    
    894000   305.68085     -1809922.9      0             -1809463        71.978227    
    895000   299.34534     -1809924.5      0             -1809474.2      96.557308    
    896000   300.70709     -1809924.3      0             -1809471.9      70.132235    
    897000   302.44753     -1809925        0             -1809470        71.248996    
    898000   295.92013     -1809920.4      0             -1809475.2      64.75096     
    899000   302.01016     -1809923.1      0             -1809468.7      99.779473    
    900000   299.32421     -1809919.3      0             -1809469        95.44947     
    901000   300.14662     -1809917.5      0             -1809466        74.686312    
    902000   301.0836      -1809923.2      0             -1809470.2      37.829384    
    903000   298.22937     -1809925.5      0             -1809476.8      71.244167    
    904000   301.22541     -1809920.4      0             -1809467.2      99.113132    
    905000   299.71732     -1809920.8      0             -1809469.9      86.99398     
    906000   298.61142     -1809923.3      0             -1809474        98.077571    
    907000   300.42895     -1809920.6      0             -1809468.6      68.550053    
    908000   300.17778     -1809922.9      0             -1809471.3      31.093587    
    909000   299.82696     -1809921.3      0             -1809470.2      7.3089257    
    910000   300.10432     -1809925.5      0             -1809474        101.42622    
    911000   300.01359     -1809926.2      0             -1809474.9      127.27315    
    912000   301.66503     -1809924.8      0             -1809471        138.51473    
    913000   300.9995      -1809919.5      0             -1809466.7      13.446621    
    914000   299.00756     -1809926.6      0             -1809476.8      18.655747    
    915000   301.69635     -1809927.5      0             -1809473.7      82.980252    
    916000   300.60607     -1809927.2      0             -1809474.9      72.006121    
    917000   298.64565     -1809924        0             -1809474.7      83.422994    
    918000   297.28643     -1809922.1      0             -1809474.8      72.846799    
    919000   299.24869     -1809911.9      0             -1809461.7      53.238573    
    920000   300.08617     -1809930.6      0             -1809479.1      112.69844    
    921000   301.45702     -1809919.9      0             -1809466.4      95.813814    
    922000   302.02106     -1809922.1      0             -1809467.7      75.612661    
    923000   301.86293     -1809919        0             -1809464.9      34.541748    
    924000   300.57677     -1809922.9      0             -1809470.7      20.961776    
    925000   298.52701     -1809924.6      0             -1809475.5      27.386344    
    926000   297.97746     -1809924.6      0             -1809476.3      85.04067     
    927000   301.06915     -1809919.3      0             -1809466.3      127.43807    
    928000   298.92974     -1809922.6      0             -1809472.9      110.27249    
    929000   297.23064     -1809916.2      0             -1809469.1      2.9349822    
    930000   299.16914     -1809917.2      0             -1809467.1      44.216067    
    931000   300.40345     -1809926.2      0             -1809474.3      85.474883    
    932000   300.72011     -1809927        0             -1809474.6      40.011079    
    933000   301.61932     -1809924.7      0             -1809471        110.90345    
    934000   298.90534     -1809918.3      0             -1809468.6      114.15035    
    935000   298.65837     -1809915.3      0             -1809466        63.80337     
    936000   301.6476      -1809922.5      0             -1809468.6      97.406214    
    937000   300.32117     -1809926.4      0             -1809474.6      64.531533    
    938000   300.87905     -1809919.6      0             -1809466.9      49.223748    
    939000   298.39911     -1809922.3      0             -1809473.4      65.490632    
    940000   300.75252     -1809925.5      0             -1809473        83.189142    
    941000   304.24914     -1809924        0             -1809466.2      89.068537    
    942000   299.34579     -1809925        0             -1809474.7      78.931691    
    943000   302.80374     -1809925        0             -1809469.4      74.916448    
    944000   301.86872     -1809917.9      0             -1809463.8      111.19673    
    945000   298.06038     -1809929.7      0             -1809481.2      131.58137    
    946000   296.47651     -1809918        0             -1809472        77.078685    
    947000   302.47302     -1809922.1      0             -1809467.1      60.685568    
    948000   299.50928     -1809926.5      0             -1809475.9      70.702633    
    949000   295.55385     -1809915.3      0             -1809470.7      62.178147    
    950000   300.45686     -1809924        0             -1809472        30.400698    
    951000   301.47741     -1809933        0             -1809479.5      90.840392    
    952000   300.12501     -1809924.8      0             -1809473.3      50.437926    
    953000   298.92382     -1809916.5      0             -1809466.7      86.400834    
    954000   299.99808     -1809924        0             -1809472.6      98.94724     
    955000   303.71724     -1809925.5      0             -1809468.6      100.63892    
    956000   300.38612     -1809922.8      0             -1809470.9      133.28642    
    957000   299.01734     -1809919.7      0             -1809469.8      169.75778    
    958000   300.22426     -1809923.4      0             -1809471.7      126.8418     
    959000   300.00632     -1809921.5      0             -1809470.2      52.043942    
    960000   303.12452     -1809922.1      0             -1809466.1      48.130046    
Loop time of 59789.2 on 1024 procs for 80000 steps with 11640 atoms

Performance: 0.116 ns/day, 207.601 hours/ns, 1.338 timesteps/s, 15.575 katom-step/s
100.0% CPU use with 1024 MPI tasks x 1 OpenMP threads

MPI task timing breakdown:
Section |  min time  |  avg time  |  max time  |%varavg| %total
---------------------------------------------------------------
Pair    | 1438.3     | 5680       | 17859      |5374.5 |  9.50
Bond    | 0.0053205  | 0.007852   | 0.013659   |   1.5 |  0.00
Neigh   | 0.063069   | 0.13956    | 0.85905    |  38.7 |  0.00
Comm    | 23.527     | 2038.4     | 7824.9     |3039.6 |  3.41
Output  | 0.62061    | 4.5742     | 8.6421     | 111.1 |  0.01
Modify  | 38281      | 52060      | 58245      |2162.4 | 87.07
Other   |            | 6.267      |            |       |  0.01

Nlocal:        11.3672 ave         231 max           0 min
Histogram: 883 2 100 15 4 4 4 6 5 1
Nghost:        94.4453 ave        1389 max           0 min
Histogram: 775 106 98 14 6 9 4 5 3 4
Neighs:              0 ave           0 max           0 min
Histogram: 1024 0 0 0 0 0 0 0 0 0
FullNghs:      1223.92 ave       42554 max           0 min
Histogram: 883 115 2 5 3 3 5 4 3 1

Total # of neighbors = 1253294
Ave neighs/atom = 107.67131
Ave special neighs/atom = 0
Neighbor list builds = 3636
Dangerous builds = 0

write_restart nvt_prod.restart.*
System init for write_restart ...
write_data nvt_prod_final.lammps-data
System init for write_data ...

Total wall time: 16:36:52
