LAMMPS data file via write_data, version 4 Feb 2025, timestep = 960000, units = metal

11640 atoms
3 atom types

0 153.69998399999997 xlo xhi
0 147.89787856140197 ylo yhi
0 151.07316997686289 zlo zhi

Masses

1 12.01099999691024
2 1.007999999740698
3 15.99899999588435

Atoms # full

3560 0 1 0 1.9513063149722993 3.52307761225673 108.53004911884548 7 0 15
3799 0 1 0 4.775800235402707 3.5555917989588326 108.92951200446993 7 0 15
3795 0 1 0 4.784596969117627 1.1103678589738655 109.21496258251514 7 0 15
3556 0 1 0 1.958782802292715 1.1004669838703325 108.82428840896311 7 0 15
3794 0 1 0 4.0451634806582595 2.3601015905782052 109.03046321793296 7 0 15
3793 0 1 0 2.642434196434783 2.309068556735105 108.76236962014433 7 0 15
3800 0 1 0 6.208392331971681 3.612812089515484 109.1882139971627 7 0 15
3796 0 1 0 6.191564567597198 1.114696960523476 109.34199650247521 7 0 15
4033 0 1 0 6.920155508825724 2.3469846351289596 109.46343714432194 7 0 15
4034 0 1 0 8.34702443048374 2.3735250438658704 109.68978268974408 7 0 15
4035 0 1 0 8.98635883575452 1.1042302976207374 109.89068425700049 7 0 15
4039 0 1 0 9.028782883447512 3.66162035762203 109.78431089017047 7 0 15
4058 0 1 0 8.33529522913243 17.094921093514913 108.3478617602309 7 0 15
4053 0 1 0 6.957258686234012 14.596903047548807 108.21821527359037 7 0 15
3803 0 1 0 4.784493594381834 5.981448667263615 108.73583736870151 7 0 15
3807 0 1 0 4.789221468197326 8.414436854846022 108.42527436360082 7 0 15
3798 0 1 0 4.0842783433541 4.770637515639091 108.6832706104719 7 0 15
3802 0 1 0 4.059373231476272 7.20004664965791 108.53335620359049 7 0 15
3801 0 1 0 2.6667787833884145 7.209572135270928 108.19846479539241 7 0 15
3797 0 1 0 2.6579785064496635 4.760062669226524 108.44817451164457 7 0 15
3568 0 1 0 1.9387431392968928 8.365599791339736 107.88361879816244 7 0 15
3564 0 1 0 1.9590183172517017 5.961205201078137 108.2576628090305 7 0 15
3808 0 1 0 6.21066528371601 8.483557626891114 108.68921619357441 7 0 15
3804 0 1 0 6.203111818648867 6.076517791484064 108.98249703707226 7 0 15
4037 0 1 0 6.9011589126580475 4.83447590258297 109.25578865550759 7 0 15
4041 0 1 0 6.900655315857867 7.339678780769203 109.07517694382966 7 0 15
4038 0 1 0 8.338308662290945 4.865306231276149 109.48113259951958 7 0 15
4042 0 1 0 8.315470818681392 7.299295869556011 109.30109777323962 7 0 15
4047 0 1 0 9.047292654444536 8.501097987025517 109.21909432973106 7 0 15
4043 0 1 0 9.033536419480471 6.067825680178751 109.52782100224118 7 0 15
4063 0 1 0 9.05963460013719 18.335380899015526 108.3186765957663 7 0 15
3815 0 1 0 4.876034978984311 13.387024294591807 107.81205975341771 7 0 15
3811 0 1 0 4.841607224634794 10.922314995655741 108.00068669450806 7 0 15
3806 0 1 0 4.130769278898664 9.649731479587086 108.07349324138346 7 0 15
3810 0 1 0 4.157670324056266 12.143347381094056 107.69646023471849 7 0 15
3809 0 1 0 2.7084557652520815 12.10562360526888 107.63654915074929 7 0 15
3805 0 1 0 2.7416193131711983 9.57143172358868 107.80094445978104 7 0 15
3572 0 1 0 1.990972628724069 10.876630580555094 107.73115581923295 7 0 15
3576 0 1 0 2.0212773408121993 13.331152211202179 107.44647951318262 7 0 15
3812 0 1 0 6.25038054394097 10.873029527793262 108.28865925329148 7 0 15
3816 0 1 0 6.277787395406305 13.398244893312608 108.13711322323218 7 0 15
4049 0 1 0 6.944934692300734 12.139430277475869 108.34540552111012 7 0 15
4045 0 1 0 6.907348052460108 9.700026084907618 108.62408548300253 7 0 15
4046 0 1 0 8.322948974673075 9.726257045053167 108.95337853626198 7 0 15
4050 0 1 0 8.323475062842816 12.162668758973163 108.79921104540618 7 0 15
4051 0 1 0 9.049822028056708 10.957209656098456 108.95788346580396 7 0 15
3824 0 1 0 6.181076758628216 18.28620483224931 107.9483266683163 7 0 15
4055 0 1 0 8.99225284347299 13.389980006577145 108.86650643739713 7 0 15
3818 0 1 0 4.11841667081403 17.040531176009562 107.57014543651928 7 0 15
3814 0 1 0 4.143844262554489 14.576405274231366 107.65414400602945 7 0 15
3819 0 1 0 4.822246552931849 15.855632118505936 107.73706115636246 7 0 15
3817 0 1 0 2.6897284654773315 17.039838422737493 107.26939325239417 7 0 15
3813 0 1 0 2.752932652880613 14.571956812368759 107.3422736358787 7 0 15
3580 0 1 0 1.9968955570209177 15.80608261602412 107.30966123161785 7 0 15
3823 0 1 0 4.805478276577122 18.307801452091887 107.74200649836118 7 0 15
3584 0 1 0 1.9667055459794964 18.328112276830534 107.15559516081906 7 0 15
4057 0 1 0 6.91167034265786 17.09313199668237 108.17209689887721 7 0 15
3820 0 1 0 6.204456865717766 15.86191960966356 108.06084496114858 7 0 15
4059 0 1 0 9.014330247689262 15.866003758808185 108.54805184558349 7 0 15
4054 0 1 0 8.34239514040572 14.597975966250262 108.53215750545093 7 0 15
3583 0 1 0 0.5965594359632741 18.282020234931476 106.8370326966819 7 0 15
3575 0 1 0 0.5924279808152527 13.29554466247852 107.53669069148133 7 0 15
3579 0 1 0 0.5970792891016399 15.768898994617864 107.28935762102265 7 0 15
3571 0 1 0 0.5951797923606412 10.833699093180917 107.72561382846484 7 0 15
3567 0 1 0 0.5183076938351122 8.417625174898344 107.84393502432214 7 0 15
3563 0 1 0 0.5433449427716184 6.008140048418126 108.12301150606004 7 0 15
3559 0 1 0 0.5239173930314228 3.5085195440214325 108.403838642835 7 0 15
3555 0 1 0 0.5754310765087332 1.047564210241267 108.50221949779039 7 0 15
3827 0 1 0 4.815482084698575 20.811205504536787 107.51732470412807 7 0 15
3822 0 1 0 4.086478736648068 19.53844466234599 107.54690322387474 7 0 15
3826 0 1 0 4.096556238871098 21.993691295287043 107.31360626588477 7 0 15
3825 0 1 0 2.7375280051506525 21.966131582731393 107.18080512445056 7 0 15
3821 0 1 0 2.702740967248775 19.536868775888426 107.20132851290698 7 0 15
3588 0 1 0 2.013552251945761 20.747874356793815 107.09034356337699 7 0 15
3828 0 1 0 6.251494065848062 20.759124969016668 107.75885432309744 7 0 15
4065 0 1 0 6.955159547118695 21.989482083636414 107.61097467449645 7 0 15
4061 0 1 0 6.929055074904834 19.558333661385344 107.9480157667787 7 0 15
4066 0 1 0 8.375518600078701 21.982139694873748 107.86469708089845 7 0 15
4062 0 1 0 8.333514422348983 19.553209587757927 108.12901133875155 7 0 15
4067 0 1 0 9.075723964743464 20.742989183012362 108.14009599836811 7 0 15
3608 0 1 0 6.349688883653804 33.103307740017605 106.91100570838103 7 -1 15
3592 0 1 0 2.027949864355219 23.233661939595663 107.07022934862377 7 0 15
3831 0 1 0 4.799157754983906 23.22597280446833 107.41871323565763 7 0 15
3835 0 1 0 4.862671860238354 25.721840775992113 107.40343720231834 7 0 15
3830 0 1 0 4.11890177515644 24.466674529582754 107.34248519708053 7 0 15
3834 0 1 0 4.131892169758763 26.949563659785227 107.27139918976674 7 0 15
3829 0 1 0 2.694087365124696 24.485796260057175 107.26295984795205 7 0 15
3833 0 1 0 2.7090945827088424 26.94536923823143 107.15133345135311 7 0 15
3596 0 1 0 1.9837555249635543 25.70349477750188 107.22064809779849 7 0 15
3832 0 1 0 6.249113602839039 23.256239465003382 107.60061882524859 7 0 15
3836 0 1 0 6.252742655604657 25.69927930536365 107.43969559352337 7 0 15
4069 0 1 0 6.9796197140942295 24.49726663577148 107.53670587400144 7 0 15
4073 0 1 0 6.9633241776415185 26.923160450626515 107.34686787180227 7 0 15
4070 0 1 0 8.402403755924201 24.44588560951734 107.55596073578124 7 0 15
4074 0 1 0 8.40693361560471 26.929604194899856 107.43157519584547 7 0 15
4075 0 1 0 9.110862924771718 25.701212073804093 107.60476352804551 7 0 15
4071 0 1 0 9.11111927606494 23.221987893381186 107.76519317583853 7 0 15
3364 0 1 0 2.055418665264861 30.63330271414934 106.82678524300358 7 -1 15
3600 0 1 0 2.0072267548757097 28.201303207348726 106.99666671532293 7 0 15
3602 0 1 0 4.197621646446929 31.86775738094646 106.80823706006927 7 -1 15
3838 0 1 0 4.163000336000586 29.44918363799914 107.14863953745719 7 0 15
3603 0 1 0 4.867383685709726 30.669235545032578 107.02148911465422 7 -1 15
3839 0 1 0 4.866333848432395 28.195582835626585 107.21936161936577 7 0 15
3837 0 1 0 2.7005342265502272 29.426942367326387 107.00225935733754 7 0 15
3601 0 1 0 2.729966090696251 31.871606278467496 106.83571809188034 7 -1 15
3840 0 1 0 6.27231717770503 28.19673556270243 107.23804213008 7 0 15
3604 0 1 0 6.282735517878444 30.63373179057708 107.01605525337231 7 -1 15
4077 0 1 0 7.037092230451011 29.410029778017808 107.18333591838224 7 0 15
3841 0 1 0 7.050335110436687 31.85103891708165 106.9984901738965 7 -1 15
4078 0 1 0 8.474602427881072 29.415712932717728 107.22346511006755 7 0 15
3842 0 1 0 8.483431497071036 31.81427617376792 107.20509403200091 7 -1 15
4079 0 1 0 9.145637945381976 28.16762929727869 107.29284772799292 7 0 15
3843 0 1 0 9.211190785321582 30.626725073134022 107.24644667087598 7 -1 15
3368 0 1 0 1.997648223198492 33.08376950785949 106.56409816402305 7 -1 15
3847 0 1 0 9.223958261962267 33.100040298288654 107.16615907745825 7 -1 15
3612 0 1 0 6.278488348094759 35.5814753956494 106.83593869773631 7 -1 15
3372 0 1 0 2.1028333840938562 35.51192315967554 106.1284088195509 7 -1 15
3605 0 1 0 2.784981405150889 34.278567979766954 106.37815524731242 7 -1 15
3606 0 1 0 4.201023368534596 34.27471715940733 106.601726078015 7 -1 15
3611 0 1 0 4.856805624322053 35.55035759286286 106.5960833939476 7 -1 15
3607 0 1 0 4.9217849800052065 33.079640349047516 106.74502720773845 7 -1 15
3610 0 1 0 4.186761131375959 36.78769003061422 106.47055055074166 7 -1 15
3845 0 1 0 7.030969773580315 34.37564544894704 107.01894476066968 7 -1 15
3851 0 1 0 9.13454553357127 35.573031866409046 107.19707407182513 7 -1 15
3846 0 1 0 8.4734751563983 34.35194920081709 107.09124590579025 7 -1 15
3609 0 1 0 2.7943652526544325 36.76052440385361 106.20888687326492 7 -1 15
3850 0 1 0 8.396309511294106 36.80215072576671 107.16276118908165 7 -1 15
3849 0 1 0 6.953890637365778 36.86537073559004 106.92266908766798 7 -1 15
3595 0 1 0 0.5550298132614365 25.687308299096685 107.0982419032279 7 0 15
3591 0 1 0 0.5747442101756148 23.24018608258464 106.95563070188456 7 0 15
3371 0 1 0 0.7038578641227256 35.54941603780894 105.94691211419155 7 -1 15
3599 0 1 0 0.5904831466004297 28.153064621783482 106.85713944834582 7 0 15
3587 0 1 0 0.5792506387417589 20.7270453539142 106.93711326983562 7 0 15
3367 0 1 0 0.585047869477003 33.10059218894751 106.23843717689027 7 -1 15
3363 0 1 0 0.597579927643837 30.6284182975163 106.50200700871986 7 -1 15
3370 0 1 0 0.006680072945187021 36.74478554610789 105.79078273593409 7 -1 15
3615 0 1 0 4.878522951658621 38.054415208667706 106.41342804080679 7 -1 15
3619 0 1 0 4.9077965665410455 40.48927028656596 106.30008127341648 7 -1 15
3614 0 1 0 4.205391631244952 39.263051457204206 106.2422825554654 7 -1 15
3613 0 1 0 2.832604221054002 39.24730539023991 106.01628832613719 7 -1 15
3380 0 1 0 2.1157929209426225 40.41831288528105 105.79176917603134 7 -1 15
3376 0 1 0 2.143739774380705 37.99784975546885 106.01709427199464 7 -1 15
3620 0 1 0 6.307313869544487 40.50306068844818 106.60555367318388 7 -1 15
3616 0 1 0 6.257863737383964 38.07429962759824 106.70636792565108 7 -1 15
3853 0 1 0 6.955852233539863 39.27760279830821 106.82256734384114 7 -1 15
3854 0 1 0 8.40258431985507 39.27724106592539 107.11286357937976 7 -1 15
3859 0 1 0 9.092347218880544 40.54599987768284 107.24072852648162 7 -1 15
3855 0 1 0 9.11114447814371 38.03721267150785 107.3004873663551 7 -1 15
3640 0 1 0 6.1398201751634485 52.832315281851145 106.6901403065992 7 -1 15
3874 0 1 0 8.248472478966875 51.643735110420096 107.20296734746874 7 -1 15
3618 0 1 0 4.198927051411812 41.766117140607044 106.09799134028235 7 -1 15
3623 0 1 0 4.863387410679978 43.01281987817479 106.2526195998835 7 -1 15
3627 0 1 0 4.882489755520819 45.44530386120731 106.42022898033615 7 -1 15
3622 0 1 0 4.148102199940411 44.27659568501755 106.19322254264262 7 -1 15
3617 0 1 0 2.7883807207511166 41.71902599431228 105.94186596526866 7 -1 15
3621 0 1 0 2.7184608667595733 44.23790340150788 105.8881894129598 7 -1 15
3388 0 1 0 1.9869225224381355 45.427606644155446 105.94553332835511 7 -1 15
3384 0 1 0 2.059473946305033 42.97511499591317 105.75342622635577 7 -1 15
3624 0 1 0 6.289172014487748 42.99340733077105 106.42733993865359 7 -1 15
3628 0 1 0 6.216631051642703 45.43844288988705 106.69680726945427 7 -1 15
3857 0 1 0 6.963404912638849 41.78254748990491 106.65066634907355 7 -1 15
3861 0 1 0 7.0038749203955435 44.247107372117675 106.70280278931146 7 -1 15
3858 0 1 0 8.364082321683822 41.760632014244955 107.0846264874776 7 -1 15
3862 0 1 0 8.359579563606747 44.2541756575699 106.98804702451244 7 -1 15
3863 0 1 0 9.085091390683813 43.01191436065799 107.17739860563377 7 -1 15
3867 0 1 0 9.053780036365167 45.44000386198384 107.26697155822032 7 -1 15
3391 0 1 0 0.5592324493774135 47.89271872987003 105.7876290848588 7 -1 15
3878 0 1 0 8.265812954247572 54.08910635228406 107.04567219473658 7 -1 15
3631 0 1 0 4.757198974104117 47.86360992597857 106.5493730107023 7 -1 15
3635 0 1 0 4.726717705942872 50.3588943617916 106.71985206316079 7 -1 15
3630 0 1 0 4.049310535152777 49.09173040191187 106.55725027433542 7 -1 15
3626 0 1 0 4.130548781934223 46.62310234381063 106.34799694648738 7 -1 15
3629 0 1 0 2.6550093164920225 49.157522520064326 106.20201896342648 7 -1 15
3625 0 1 0 2.7227730178918272 46.671058891470615 106.05929202717907 7 -1 15
3392 0 1 0 1.9697797083221666 47.89642052474448 106.02294990108085 7 -1 15
3396 0 1 0 1.9046350979875393 50.38512692230641 106.0717783062593 7 -1 15
3632 0 1 0 6.173329977150714 47.93447834307157 106.90908605002835 7 -1 15
3636 0 1 0 6.127360749513678 50.35511642285326 106.9987239987271 7 -1 15
3869 0 1 0 6.830268820929495 49.128560423493845 107.10974632344113 7 -1 15
3865 0 1 0 6.91744794158144 46.68744510986985 106.95672242461819 7 -1 15
3875 0 1 0 8.941104484750428 50.42404602913663 107.35508698300907 7 -1 15
3879 0 1 0 8.959844958237548 52.878058050552205 107.26800649029701 7 -1 15
3866 0 1 0 8.339976395077358 46.72410182165553 107.25742386633922 7 -1 15
3870 0 1 0 8.2704256312292 49.15439498686512 107.28277028227548 7 -1 15
3871 0 1 0 9.030904541653085 47.968544906379584 107.40342113763161 7 -1 15
3873 0 1 0 6.8167979877393226 51.617876030661 106.97393326283635 7 -1 15
3633 0 1 0 2.6210711123669608 51.600029730519395 106.07891626043295 7 -1 15
3638 0 1 0 4.053474438210593 54.07082085542127 106.16169539107933 7 -1 15
3400 0 1 0 1.9779274014853157 52.838264753285706 105.85101093085338 7 -1 15
3637 0 1 0 2.7031926398003616 54.082680563976304 105.91376567009851 7 -1 15
3639 0 1 0 4.75652012267123 52.818830588643856 106.36514910612466 7 -1 15
3634 0 1 0 4.000105181315221 51.57599570026227 106.4725940910787 7 -1 15
3877 0 1 0 6.887190066707483 54.123673209840774 106.74053755304355 7 -1 15
3387 0 1 0 0.6328909246724066 45.407731205708096 105.68909387230963 7 -1 15
3395 0 1 0 0.5242847787733024 50.39615820107816 105.85561117783573 7 -1 15
3399 0 1 0 0.5322502927056281 52.86545844357119 105.75070668265278 7 -1 15
3383 0 1 0 0.6581652931772158 42.9164388998423 105.47021525902251 7 -1 15
3379 0 1 0 0.7026570655533869 40.40325920900094 105.56314994364801 7 -1 15
3375 0 1 0 0.6873270325953793 38.00653901873697 105.72307986543332 7 -1 15
3404 0 1 0 1.9923884294340513 55.32806948283436 105.78031607554354 7 -1 15
3643 0 1 0 4.804594292045399 55.346101337231694 106.31881855395893 7 -1 15
3644 0 1 0 6.1957638194488265 55.37669843719942 106.58713165760034 7 -1 15
3403 0 1 0 0.5643354965138775 55.33567205742921 105.63782581484176 7 -1 15
3883 0 1 0 8.974222220469196 55.3470693145069 107.11041602813995 7 -1 15
3647 0 1 0 4.761089237524797 57.81353772150989 106.33366693612336 7 -1 15
3646 0 1 0 4.025423899039411 59.08550437353252 106.32127489502386 7 -1 15
3642 0 1 0 4.062881783828594 56.564751063849826 106.22020439925838 7 -1 15
3641 0 1 0 2.6709905972284713 56.542774044280826 106.02469204305237 7 -1 15
3645 0 1 0 2.610283776682663 59.06487669290518 106.05272651586037 7 -1 15
3408 0 1 0 1.9420344796679823 57.8205191785692 105.92705228660829 7 -1 15
3648 0 1 0 6.148549553541189 57.79722092419495 106.62184732381586 7 -1 15
3881 0 1 0 6.920801022809585 56.59023336042655 106.6370548281628 7 -1 15
3885 0 1 0 6.886320686322363 59.07337131722529 106.80638930545338 7 -1 15
3882 0 1 0 8.289593989429406 56.579333085770436 106.9439100938115 7 -1 15
3886 0 1 0 8.265677680455747 59.06537769383348 107.01408607251314 7 -1 15
3887 0 1 0 9.014635049691377 57.81677560637421 107.14700947121968 7 -1 15
3905 0 1 0 6.906219807412348 71.43982243497037 105.98604334852713 7 -1 15
3668 0 1 0 6.2470879518007845 70.15731430167945 105.99054888127073 7 -1 15
3672 0 1 0 6.1926123318538995 72.66537775499724 105.83730769230597 7 -1 15
3416 0 1 0 1.944362668353357 62.85536229154243 105.89067506955617 7 -1 15
3412 0 1 0 1.9634259840259183 60.31947149828643 105.97983376932069 7 -1 15
3655 0 1 0 4.741934679072525 62.761668537900334 106.2140203703489 7 -1 15
3651 0 1 0 4.759916662665265 60.301777008754286 106.54702561639854 7 -1 15
3654 0 1 0 4.098662534121653 63.99901576870788 106.09485734587211 7 -1 15
3650 0 1 0 4.042295246565867 61.511823087044995 106.2848088836989 7 -1 15
3653 0 1 0 2.654502212908699 64.02998137366471 105.87624794596779 7 -1 15
3649 0 1 0 2.666620052954165 61.57038288831967 106.01231962252857 7 -1 15
3656 0 1 0 6.185339691455955 62.73274870361859 106.40965167019293 7 -1 15
3652 0 1 0 6.188294944171416 60.28152620555375 106.67200693937443 7 -1 15
3889 0 1 0 6.8575623171906175 61.47891554394366 106.62665960690192 7 -1 15
3893 0 1 0 6.870631759098194 64.01316674131522 106.41132059070331 7 -1 15
3894 0 1 0 8.316643921583712 64.03386097295234 106.6207733169525 7 -1 15
3890 0 1 0 8.268768834377402 61.5218243943374 106.91277587540745 7 -1 15
3891 0 1 0 8.945328915216686 60.29501537112723 107.04493459840326 7 -1 15
3895 0 1 0 8.97441010696461 62.766353469522876 106.82968899432244 7 -1 15
3666 0 1 0 4.089129889591314 71.38265207024952 105.90794321788528 7 -1 15
3907 0 1 0 9.055252969744187 70.19012212584019 106.25403419910812 7 -1 15
3420 0 1 0 1.9808920807288195 65.29059603308595 105.74093063847589 7 -1 15
3659 0 1 0 4.815928409723822 65.25618862112353 105.96505766435874 7 -1 15
3663 0 1 0 4.7730215046837525 67.72576517314698 106.02529867852297 7 -1 15
3658 0 1 0 4.10946025882845 66.45233777754756 105.9778203329587 7 -1 15
3662 0 1 0 4.064502951409696 68.96110708403337 105.95890989703327 7 -1 15
3657 0 1 0 2.693493693296569 66.50411633698336 105.76189167241634 7 -1 15
3661 0 1 0 2.6732198143612522 68.95498640063303 105.89966569243715 7 -1 15
3424 0 1 0 1.9539432659909552 67.69402420702893 105.7092467028504 7 -1 15
3664 0 1 0 6.198804318070025 67.73354821439406 106.11794782353326 7 -1 15
3660 0 1 0 6.200705835352033 65.28950089833823 106.20406999288006 7 -1 15
3897 0 1 0 6.921525338149787 66.48749083639176 106.30379577052175 7 -1 15
3901 0 1 0 6.962020912937027 68.95185102253681 106.1067487219903 7 -1 15
3902 0 1 0 8.415947678795066 68.94964218778779 106.20965590722587 7 -1 15
3911 0 1 0 9.091981093130073 72.64279501106313 106.05401822286323 7 -1 15
3899 0 1 0 9.036058101876014 65.21606561203595 106.50841166817386 7 -1 15
3906 0 1 0 8.354903661959419 71.40594569559899 106.08658814225268 7 -1 15
3903 0 1 0 9.090323977666916 67.71680334819007 106.39392523697215 7 -1 15
3898 0 1 0 8.35312775381467 66.46267250090212 106.39492709239981 7 -1 15
3428 0 1 0 1.940202329975203 70.15392087474882 105.93963858962279 7 -1 15
3665 0 1 0 2.6785071567273864 71.42407581055096 106.00413650908887 7 -1 15
3432 0 1 0 1.9206757748013341 72.64944721978644 106.00177811224405 7 -1 15
3667 0 1 0 4.817306959947641 70.12378347139433 105.89744772923372 7 -1 15
3671 0 1 0 4.789831781283864 72.62314212683034 105.8760073194181 7 -1 15
3431 0 1 0 0.47240681698743653 72.63331794375893 105.88372187362417 7 -1 15
3407 0 1 0 0.5490628822273176 57.814078350727826 105.7508395936998 7 -1 15
3669 0 1 0 2.614521911088973 73.8832941805558 105.98648456527056 7 -1 15
3427 0 1 0 0.5043053512751224 70.1946590161437 105.8105957317774 7 -1 15
3423 0 1 0 0.5547890693881822 67.73858764089772 105.66279103018402 7 -1 15
3910 0 1 0 8.391078718842222 73.87119376720796 105.90522886354813 7 -1 15
3411 0 1 0 0.5151779697880113 60.33751075904433 105.7719458455075 7 -1 15
3419 0 1 0 0.5583400609097602 65.24331460294322 105.63097234676248 7 -1 15
3415 0 1 0 0.512775688269938 62.82894175674531 105.7886045335043 7 -1 15
3909 0 1 0 6.954188365824128 73.90302622036008 105.89932116388236 7 -1 15
3670 0 1 0 4.060971943071722 73.85352412350886 105.88933957973602 7 -1 15
3673 0 1 0 2.6329389533395817 76.34690166282834 106.00494585206916 7 -1 15
3436 0 1 0 1.9334413824201284 75.13560255477807 106.03368407087619 7 -1 15
3440 0 1 0 1.929034965190865 77.58240063440954 106.09393329010287 7 -1 15
3687 0 1 0 4.735486313920081 82.55133283588863 105.99825482563891 7 -1 15
3683 0 1 0 4.777348770713145 80.10482064772629 105.93626651857691 7 -1 15
3678 0 1 0 4.070043880740186 78.86319505711302 106.07926033938993 7 -1 15
3682 0 1 0 4.02697066113361 81.32305168117881 105.96415462683947 7 -1 15
3681 0 1 0 2.5792148621841298 81.29622103684372 106.01918269852537 7 -1 15
3677 0 1 0 2.6404618139649334 78.81419479535326 106.10768054377318 7 -1 15
3448 0 1 0 1.8739670927651677 82.5270500643467 106.08244904880736 7 -1 15
3444 0 1 0 1.9117744891957953 80.05499417512343 106.08864821975247 7 -1 15
3688 0 1 0 6.20928904234468 82.57338325415394 105.97708532277666 7 -1 15
3695 0 1 0 4.7249088883848 87.48174552139193 106.49457477430727 7 -1 15
3691 0 1 0 4.7063380136061195 84.97987436763084 106.1975637604074 7 -1 15
3686 0 1 0 4.0426794336770975 83.74927466898549 106.09370559332292 7 -1 15
3690 0 1 0 4.0311419856841475 86.24701405179447 106.46160977364733 7 -1 15
3685 0 1 0 2.5961179673457995 83.77570545009043 106.13005722022572 7 -1 15
3689 0 1 0 2.6402878237306076 86.21057291333662 106.56547210840873 7 -1 15
3452 0 1 0 1.9153123146733366 84.99240765134357 106.41413789976583 7 -1 15
3456 0 1 0 1.863098464458847 87.42439335223682 106.61353588021352 7 -1 15
3692 0 1 0 6.1676773634611575 85.01847099242478 106.12769707898403 7 -1 15
3696 0 1 0 6.131700937526675 87.45127533648316 106.30445062140161 7 -1 15
3929 0 1 0 6.842474992182445 86.27141066129315 106.16673150123974 7 -1 15
3925 0 1 0 6.895828596779624 83.79852925451091 106.01517474959913 7 -1 15
3935 0 1 0 8.95184377123895 87.52357151542579 106.05671840835728 7 -1 15
3700 0 1 0 6.076402280025875 89.93234715162559 106.39692851616199 7 -1 15
3930 0 1 0 8.257415191894044 86.24452008329463 106.05855031613 7 -1 15
3931 0 1 0 8.989510064431135 85.01679600237733 105.94491772632185 7 -1 15
3934 0 1 0 8.24021048317138 88.76330319162317 106.17727967869307 7 -1 15
3679 0 1 0 4.736946459427439 77.60479794093273 106.07996346702573 7 -1 15
3675 0 1 0 4.768563206512475 75.1235442427393 105.97395350134259 7 -1 15
3674 0 1 0 4.043423042052008 76.37981359195491 106.03094569193811 7 -1 15
3693 0 1 0 2.569418443401322 88.68140908423226 106.70500307748273 7 -1 15
3699 0 1 0 4.686839909808824 89.90106181895263 106.70744265360968 7 -1 15
3680 0 1 0 6.1691011964230045 77.60777573981854 105.99828571033541 7 -1 15
3676 0 1 0 6.205447382542953 75.10847777352912 105.97438551077512 7 -1 15
3913 0 1 0 6.908442440933769 76.33844896863799 105.97112493864425 7 -1 15
3694 0 1 0 4.014464730709337 88.69083237788618 106.65432503267475 7 -1 15
3914 0 1 0 8.325335633477861 76.35372572759059 105.96673305961288 7 -1 15
3698 0 1 0 3.9720820662658447 91.17652374351026 106.8831755401535 7 -1 15
3915 0 1 0 9.03083050940434 75.11599083131749 106.02709008909515 7 -1 15
3919 0 1 0 9.062200414492443 77.61770427152527 105.96050268948298 7 -1 15
3933 0 1 0 6.797496776998358 88.6755207690251 106.31734619998319 7 -1 15
3697 0 1 0 2.5309453362618948 91.14480360908918 106.990464739484 7 -1 15
3684 0 1 0 6.187847871869832 80.13396744242566 105.8954044155607 7 -1 15
3917 0 1 0 6.885714731632591 78.84619663273972 105.99344752042153 7 -1 15
3921 0 1 0 6.921549219756115 81.31971129357919 105.8209540394336 7 -1 15
3918 0 1 0 8.326929862969125 78.84165660462818 105.94037696557733 7 -1 15
3922 0 1 0 8.32839766946023 81.3020227723974 105.77673493808311 7 -1 15
3927 0 1 0 9.061835935146613 82.56570628533947 105.68855528272297 7 -1 15
3923 0 1 0 9.06008164037279 80.0910209609709 105.78819778352654 7 -1 15
3939 0 1 0 8.926874757536744 89.98043722710872 106.10550633524235 7 -1 15
3937 0 1 0 6.763580326674602 91.20812268352527 106.41457786464308 7 -1 15
3926 0 1 0 8.295844801764318 83.76073152687808 105.89245144291995 7 -1 15
3938 0 1 0 8.236343118646637 91.2068443293361 106.26036914292953 7 -1 15
3460 0 1 0 1.8749547246286529 89.91825907777361 106.85631013469079 7 -1 15
3435 0 1 0 0.49387960769268663 75.13457004960597 106.00953703167994 7 -1 15
3439 0 1 0 0.4878330550923202 77.5794047466149 106.01980742864522 7 -1 15
3443 0 1 0 0.5130644743773414 80.03668234701082 106.04588032898222 7 -1 15
3455 0 1 0 0.4018879285988215 87.423685661705 106.67857169653622 7 -1 15
3704 0 1 0 6.094158048660964 92.4307018616334 106.75850235930628 7 -1 15
3459 0 1 0 0.4364669895616226 89.8867019773282 106.90663598337346 7 -1 15
3447 0 1 0 0.47052517932702276 82.56902140082187 106.16670403460711 7 -1 15
3451 0 1 0 0.4658227083945212 84.92859848657105 106.45497866901098 7 -1 15
3464 0 1 0 1.8102857764803773 92.35072248319257 107.1048213131925 7 -1 15
3463 0 1 0 0.4110778854088009 92.3837129206354 107.08038391764009 7 -1 15
3707 0 1 0 4.7557002373787665 94.90061983985794 107.14619966708179 7 -1 15
3969 0 1 0 6.8542495074453464 110.78474932139851 108.98777983256672 7 -1 15
3706 0 1 0 4.008472296406832 96.09188902393102 107.28564815767984 7 -1 15
3702 0 1 0 3.9819209521097094 93.64942856822395 107.13895435075776 7 -1 15
3701 0 1 0 2.519155419410122 93.62479449893279 107.21825108684115 7 -1 15
3705 0 1 0 2.539534202146516 96.08941957929355 107.47443897914145 7 -1 15
3468 0 1 0 1.8370797890401358 94.83268128390654 107.5018066181686 7 -1 15
3967 0 1 0 8.898966268928476 107.18450798151184 107.86127781131606 7 -1 15
3708 0 1 0 6.1574380458126745 94.86096357785178 107.05776667141726 7 -1 15
3471 0 1 0 0.43125027570099583 97.27026444830517 107.66784059616504 7 -1 15
3941 0 1 0 6.810582265068781 93.66279826892259 106.74032634871752 7 -1 15
3945 0 1 0 6.841735193276524 96.1561156411103 106.96837385340717 7 -1 15
3942 0 1 0 8.223290384174716 93.6852296572095 106.47788271438117 7 -1 15
3946 0 1 0 8.243713351081846 96.15118766456288 106.69253096311598 7 -1 15
3487 0 1 0 0.401570505408692 107.07451144185485 108.80293122246871 7 -1 15
3947 0 1 0 9.003844170263934 94.93331124005184 106.52690099062015 7 -1 15
3732 0 1 0 6.128089447376827 109.50613825417084 108.80113567590634 7 -1 15
3728 0 1 0 6.077948591260512 107.13022890715484 108.25252533492662 7 -1 15
3710 0 1 0 3.9555460731225396 98.59042218904708 107.40278352849802 7 -1 15
3714 0 1 0 3.8841180334511494 101.03570653597075 107.39881515091606 7 -1 15
3711 0 1 0 4.698979810457855 97.35967685701301 107.26906043291898 7 -1 15
3715 0 1 0 4.628654811365785 99.78409762413204 107.2679682127319 7 -1 15
3713 0 1 0 2.484209556692217 101.01643060904159 107.62207817376166 7 -1 15
3709 0 1 0 2.5711639468764442 98.52345058389051 107.57697985516185 7 -1 15
3476 0 1 0 1.8132266417742746 99.73113608742764 107.6291262571073 7 -1 15
3472 0 1 0 1.8469528254431142 97.28298585667442 107.58099614371844 7 -1 15
3716 0 1 0 6.096693015505179 99.83323676695724 107.13438555658689 7 -1 15
3712 0 1 0 6.104753790282582 97.39181051243303 107.03016975225287 7 -1 15
3953 0 1 0 6.767246788897596 101.10428998315584 107.21243948558242 7 -1 15
3949 0 1 0 6.812128507468755 98.63583838507458 106.90430941233403 7 -1 15
3954 0 1 0 8.202381255967667 101.09232045285623 107.1448158442148 7 -1 15
3950 0 1 0 8.255052136303123 98.63255685124363 106.7450662624832 7 -1 15
3955 0 1 0 8.933346155650637 99.86042385690673 106.86384534482426 7 -1 15
3951 0 1 0 8.936570995928871 97.37513090652014 106.71147377392131 7 -1 15
3966 0 1 0 8.254802308203748 108.41562028782165 108.19871156847331 7 -1 15
3730 0 1 0 3.9636074040518765 110.6606139161403 109.35065476553507 7 -1 15
3718 0 1 0 3.9310487112727266 103.46454450096374 107.82013313628033 7 -1 15
3719 0 1 0 4.6604365970042965 102.28063767626506 107.52670322583039 7 -1 15
3717 0 1 0 2.5034455899924284 103.44313917717498 107.95861009780585 7 -1 15
3480 0 1 0 1.7443842956848323 102.2218956776558 107.92836471084487 7 -1 15
3723 0 1 0 4.624635191006622 104.72392121692818 107.94455686229112 7 -1 15
3722 0 1 0 3.9099797104258562 105.9275361928773 108.18798715134743 7 -1 15
3721 0 1 0 2.504776725880316 105.89287287975745 108.32894928423866 7 -1 15
3484 0 1 0 1.7967690505617824 104.67088654196621 108.23553103810346 7 -1 15
3720 0 1 0 6.058753213467105 102.32902757259366 107.45046519018639 7 -1 15
3957 0 1 0 6.723757970932132 103.55105924135412 107.47525144998406 7 -1 15
3958 0 1 0 8.155002636710613 103.56221228625866 107.41484006137517 7 -1 15
3959 0 1 0 8.909039531346766 102.32969615103066 107.15440995459751 7 -1 15
3965 0 1 0 6.851674745921673 108.33093048046655 108.4044945201415 7 -1 15
3971 0 1 0 8.976839048602068 109.57589353176364 108.42577468931187 7 -1 15
3724 0 1 0 6.039779639144668 104.73509663034714 107.78241777302934 7 -1 15
3961 0 1 0 6.7802969281277505 105.95003075055797 107.96911029482622 7 -1 15
3963 0 1 0 8.930008715457934 104.75998295061503 107.55743339617679 7 -1 15
3962 0 1 0 8.228074595517969 105.97700467885647 107.86573388450262 7 -1 15
3729 0 1 0 2.5370913261843313 110.70562865427397 109.45293896848676 7 -1 15
3726 0 1 0 3.9538518809680765 108.27287804609396 108.88357100739073 7 -1 15
3731 0 1 0 4.710971062277845 109.48065681717648 108.96977401584577 7 -1 15
3727 0 1 0 4.6418734962545125 107.12442496836479 108.44231221921537 7 -1 15
3725 0 1 0 2.5337641670757045 108.26012636811176 108.96264271182342 7 -1 15
3492 0 1 0 1.8313187151909012 109.49798500184484 109.2217339664849 7 -1 15
3488 0 1 0 1.820739438676215 107.0929400773839 108.71942114802069 7 -1 15
3970 0 1 0 8.271802878976695 110.8117972344642 108.86749960104696 7 -1 15
3467 0 1 0 0.420134319129017 94.80051016160184 107.6352800378756 7 -1 15
3491 0 1 0 0.38085693716503516 109.4247918396781 109.40272623477944 7 -1 15