(written by ASE)

10140 atoms
3 atom types

0.0      154.00799999999998  xlo xhi
0.0      148.19999999999999  ylo yhi
0.0      151.07609208607428  zlo zhi

Masses

     1      12.010999996910238 # C
     2      1.0079999997406979 # H
     3      15.998999995884349 # O

Atoms # full

     1   0   1   0.0       27.95630557490222      2.1392174164289104      61.552415117259955
     2   0   1   0.0      15.800743198356413     -9.1376044568887362      61.446100123993951
     3   0   1   0.0      27.838332180434954     -7.8147207286163303      61.015632415757423
     4   0   1   0.0       15.75138180350185     -6.6177948131555393      61.405553292302145
     5   0   1   0.0       27.89182697343913     -5.3528968859434993      61.142493845692698
     6   0   1   0.0      15.821443520101212     -4.0880792085789306      61.490979639332352
     7   0   1   0.0      27.882416275478104     -2.8653498309708674      61.286362520314945
     8   0   1   0.0      15.817484504601824     -1.6390841732429362      61.580028814714844
     9   0   1   0.0      27.930924798037452     -0.4223328751598141      61.558911829313338
    10   0   1   0.0      15.736363756161349     0.84133381121886086      61.762877878665599
    11   0   1   0.0      17.224940023326948     -9.0834127179363175      61.436392495582083
    12   0   1   0.0      17.854384046078128     -7.8454262499858789        61.3478339287444
    13   0   1   0.0      17.167076681088215     -6.6094042581640391      61.365774620760071
    14   0   1   0.0      17.907952817217669     -5.3491788008178727      61.492964459475509
    15   0   1   0.0      17.202329718397689     -4.0865575624816968      61.610076507998585
    16   0   1   0.0      17.934728251130881     -2.8564063735054019      61.531953852342376
    17   0   1   0.0       17.19954235523112     -1.6064398114141707      61.483718949527123
    18   0   1   0.0      17.971876579325603    -0.38109459926807371      61.640848920874525
    19   0   1   0.0      17.238001453722397     0.83478488235610904      61.695575457509513
    20   0   1   0.0      17.974060473265641      2.0806448186796804      61.683918682081085
    21   0   1   0.0        19.3680401604677      2.0817811920719538      61.722081203498469
    22   0   1   0.0      20.044319882375149     -9.0894881963267551      61.398843442160882
    23   0   1   0.0      19.260824152176468     -7.8453663649299079      61.395279381922315
    24   0   1   0.0      20.052430252362058     -6.5978815481784325      61.467607809877315
    25   0   1   0.0      19.339536729020811     -5.3669457131077323      61.476558867417594
    26   0   1   0.0      20.058210412204716     -4.1560257850482838      61.591414085192476
    27   0   1   0.0      19.363595953164406     -2.8513778327010755      61.553325206777153
    28   0   1   0.0      20.110039493936419      -1.667839983534928       61.57501056556395
    29   0   1   0.0      19.378306028635006    -0.38517496823982944      61.622427111889422
    30   0   1   0.0       20.09511292575991      0.8609482857002807       61.73728793229931
    31   0   1   0.0      21.484816007410775     -9.0156734144998421      61.408675299103592
    32   0   1   0.0      22.229811576264922     -7.8057961387485832      61.426229634004507
    33   0   1   0.0       21.50808770112582     -6.6027099918139562      61.402560657456888
    34   0   1   0.0      22.191702767674144     -5.3612924289969026      61.427416545027768
    35   0   1   0.0       21.45506175875526     -4.1626006106127109      61.587091347530873
    36   0   1   0.0      22.222729626701863      -2.911484021715864      61.699427329620505
    37   0   1   0.0       21.54474720423767     -1.6842699870027587      61.752743425267504
    38   0   1   0.0       22.22294816559911     -0.4152262233864778      61.866442304838266
    39   0   1   0.0      21.517022397170589     0.84381651143805581      61.931495492020893
    40   0   1   0.0        22.2145297818305      2.0995508214902605      61.971542960860525
    41   0   1   0.0      23.656177798471877      2.1123032192234605      61.986376644717183
    42   0   1   0.0      24.361894394022656     -9.0728919010546516      61.323082102734801
    43   0   1   0.0       23.60356460198512     -7.8449580619334567      61.363380375717909
    44   0   1   0.0      24.312968803475698     -6.5495951719209504      61.394368276985155
    45   0   1   0.0      23.591295342395249     -5.3953548831097855      61.452908986306795
    46   0   1   0.0       24.31390098581204      -4.141200117465929      61.598653608439562
    47   0   1   0.0      23.648497447728143     -2.9230310979424665      61.724559431230105
    48   0   1   0.0      24.348837712038495     -1.6707350612474283      61.909514787524635
    49   0   1   0.0      23.616401317704444    -0.43209891066979006      61.969758005990386
    50   0   1   0.0      24.329554937259552     0.86628514454530847      62.068203594665505
    51   0   1   0.0      25.746114744491496     -9.0883870011435963      61.172325292039588
    52   0   1   0.0      26.421148828796294     -7.8425927929333206      61.120485919464294
    53   0   1   0.0      25.766658189295082     -6.6348576016515315      61.269298346129517
    54   0   1   0.0      26.468874117650302     -5.3850750454465119      61.244551203734027
    55   0   1   0.0      25.764404744124796     -4.1785155793391437      61.560512696988447
    56   0   1   0.0       26.46684052361115     -2.9214281972376446      61.552346103811566
    57   0   1   0.0      25.767937297542876     -1.6308255639056131      61.816576401729414
    58   0   1   0.0      26.495262339247873    -0.36798757285533235      61.820471869033511
    59   0   1   0.0      25.736414074818619     0.88990138252138185      61.892880662896857
    60   0   1   0.0      26.565050359185879      2.1393011321334217      61.719724076057595
    61   0   1   0.0      27.881117717301674       14.44426660642363       60.29740943420564
    62   0   1   0.0      15.757054082290058      3.2858684095443413       61.60576653150688
    63   0   1   0.0      27.921466892879423      4.6516776990349511      61.543396724400012
    64   0   1   0.0      15.798257459143439      5.8178145900191671      61.425035901771395
    65   0   1   0.0      27.922169839369541      7.1085027387267443      61.329533133344135
    66   0   1   0.0      15.776974663602669      8.2235601933778515      61.289641889042073
    67   0   1   0.0      27.918250948575103      9.5089077439619896      61.023473238148561
    68   0   1   0.0      15.783134481085812      10.687981795954505      61.199922541275178
    69   0   1   0.0      27.904804484843755      11.917972598617501      60.668495369392801
    70   0   1   0.0        15.7936904988774      13.147991858178806      60.994975667287662
    71   0   1   0.0      17.210999823277362      3.3001773653833242        61.5581681677943
    72   0   1   0.0      17.948792267869184      4.5228730617638195      61.523590661816989
    73   0   1   0.0      17.185329620208567      5.7762552162166783      61.519347717209747
    74   0   1   0.0      17.930223030801027      6.9721673008786587      61.396376301285152
    75   0   1   0.0      17.273116674260187      8.2301096360893595       61.28500966642175
    76   0   1   0.0      17.937053104529252      9.4796262044556947      61.151996624453041
    77   0   1   0.0      17.221594199662359      10.678697429358611      61.129143505595756
    78   0   1   0.0      17.926689968294234      11.937994772949791      61.053060944214451
    79   0   1   0.0      17.218178071261946      13.161298725551063      61.027230468034595
    80   0   1   0.0      17.937995573044699      14.430460435937126      61.029304675734764
    81   0   1   0.0       19.33932029182575      14.448770367398916      60.997656474144343
    82   0   1   0.0       20.05287666566014      3.3245017731747541      61.724522020146225
    83   0   1   0.0       19.36210488323594      4.5698929874174379      61.593039970909757
    84   0   1   0.0      20.072837032920198      5.7715684229987474       61.41712267343577
    85   0   1   0.0      19.349424914434699      6.9583059083473326      61.348494735460264
    86   0   1   0.0      20.075292690964652      8.1946506668994807      61.143706120597379
    87   0   1   0.0       19.37932516937536       9.473892472715626      61.042885006074734
    88   0   1   0.0      20.062525706685143      10.680757270527636       60.91222397337706
    89   0   1   0.0        19.3752297790349      11.961248353448816      60.972831200630793
    90   0   1   0.0       20.02761140457768      13.207750659737016       60.90608823213929
    91   0   1   0.0      21.482720481324328      3.3099417322470779      61.783722292879844
    92   0   1   0.0      22.208104558177538      4.5820095907440805      61.668166154813363
    93   0   1   0.0      21.504140472163279      5.8175069935002206      61.542809980666036
    94   0   1   0.0      22.241597433092661      7.0210641728087548      61.297334596042504
    95   0   1   0.0      21.520326389080935      8.2039754538311414      61.157728589854486
    96   0   1   0.0      22.234197268234173      9.4613768357087142      61.017507420461797
    97   0   1   0.0      21.504437080391796      10.699616796171586      60.900375845768075
    98   0   1   0.0      22.251479849356617       11.94926037499352      60.710031944415306
    99   0   1   0.0      21.472392347951907      13.232420250209382      60.788284996186746
   100   0   1   0.0      22.173651852139393       14.44352681174481      60.825108941031083
   101   0   1   0.0      23.594961108070923      14.401247475742208      60.701572921280047
   102   0   1   0.0      24.406851581537271      3.3595821205548009      61.817379678096806
   103   0   1   0.0      23.694246271418852      4.5824512491455405      61.742432725560647
   104   0   1   0.0      24.385975573899074      5.8320410451130869       61.58467281847561
   105   0   1   0.0      23.667496922461467      7.0143604427762281      61.389530312840598
   106   0   1   0.0      24.337557396100543      8.2979449931065172      61.349869612194155
   107   0   1   0.0       23.62480830347279      9.5026550964061656        61.1064295718853
   108   0   1   0.0      24.368226291049556      10.652522729341303      60.822088021219422
   109   0   1   0.0      23.665038514918429      11.925470361953327      60.661414379525375
   110   0   1   0.0      24.322133692236989      13.166605224104531      60.558855788313785
   111   0   1   0.0      25.877233972971634      3.3316265246620325      61.779060990632011
   112   0   1   0.0      26.542939403396453      4.6061911977653924      61.671445912370011
   113   0   1   0.0      25.829269275775061      5.8406052132673523      61.629858089080308
   114   0   1   0.0      26.516535673976744      7.0565665164211424      61.475890502015389
   115   0   1   0.0      25.750766539213771      8.3090300408558235      61.381558705152784
   116   0   1   0.0      26.493499669007281      9.5499397010659184      61.191626404949581
   117   0   1   0.0      25.774408057327715      10.719982069634401      60.898168563780615
   118   0   1   0.0      26.465548108753648      11.937318163878558      60.674884527375248
   119   0   1   0.0      25.739918575507314      13.179690642866861      60.515408397762563
   120   0   1   0.0      26.429348036740446      14.436138857665469        60.3319139042176
   121   0   1   0.0      27.847635226261339      26.789840256459364       59.30789651942608
   122   0   1   0.0      15.798436710930597      15.631060726646686      61.065949641451198
   123   0   1   0.0      27.802573384402613      16.880764678045164      59.984082894234341
   124   0   1   0.0      15.793742327032032      18.110605925715415      61.116805489272807
   125   0   1   0.0       27.80698221665428      19.332027241421077       59.89126696646246
   126   0   1   0.0      15.771999903490023      20.582807209080965      60.931526567865561
   127   0   1   0.0      27.822953045640947      21.868597081015508      59.808974023676662
   128   0   1   0.0      15.745233020173911      23.011553584921572      60.750512157634084
   129   0   1   0.0      27.837669147539103      24.275444483227041      59.503832271434312
   130   0   1   0.0      15.749620090985879      25.457871453553672      60.593728538999272
   131   0   1   0.0      17.183132598414357      15.672089233132791      61.075617963704019
   132   0   1   0.0      17.904714793054332      16.861689301448035      61.043567527980713
   133   0   1   0.0       17.20899343366592      18.102169151094767      61.044195020043205
   134   0   1   0.0      17.945108257957621      19.330688960078657      60.953747074100463
   135   0   1   0.0      17.204329445195274      20.555665258541762      60.979864703665704
   136   0   1   0.0      17.899202311977106      21.833792021328115      60.958261675987686
   137   0   1   0.0      17.176735637129532      23.052059491322186       60.82873641537094
   138   0   1   0.0        17.8838473512672      24.326772511606325      60.584896046933231
   139   0   1   0.0      17.158001963759876      25.564260363347035      60.573672974671901
   140   0   1   0.0       17.92705957113553      26.746087560631935      60.389408310073684
   141   0   1   0.0      19.340573005210153      26.766367107006545      60.352117506965527
   142   0   1   0.0      20.023752022857895      15.691962310124003      61.033340860470702
   143   0   1   0.0      19.310952631931674      16.926538027652096      60.928188107415608
   144   0   1   0.0      20.065485075475195      18.137808736328122      60.800347671481013
   145   0   1   0.0      19.335065736698816      19.366311349465516       60.84249421992272
   146   0   1   0.0      20.035195768431706      20.635638518855412      60.821835866186568
   147   0   1   0.0      19.333153117035508      21.823848951993423      60.821686147194434
   148   0   1   0.0      20.112775972865812      23.035144615513602      60.608889631370324
   149   0   1   0.0      19.295121028925838      24.268864018361214      60.623024483357142
   150   0   1   0.0      20.014146692132936      25.502721636035648      60.376255386427509
   151   0   1   0.0      21.472677636183573      15.708339877804219      60.918109720197812
   152   0   1   0.0      22.187865831425647      16.919386571165834      60.841364407595954
   153   0   1   0.0      21.482536685148034      18.149233422222409      60.755507192362337
   154   0   1   0.0      22.199342791318159      19.396235793576977      60.523583047827067
   155   0   1   0.0      21.418842110726434      20.644318560569182      60.537868138794856
   156   0   1   0.0      22.160294900173561      21.869487931385947      60.252802822730722
   157   0   1   0.0      21.491673425109649      23.108524955940094      60.256583450355613
   158   0   1   0.0      22.214350052074614      24.341588378391794      60.128639225688296
   159   0   1   0.0      21.459808881966143       25.54859369910719      60.213874184917621
   160   0   1   0.0      22.111521100156267      26.787967735767634      59.947945552039094
   161   0   1   0.0      23.552495078769319      26.782399786883492      59.708481905021209
   162   0   1   0.0      24.304218415127139      15.642338699152853       60.66489930220289
   163   0   1   0.0      23.614577339981633      16.943095085342598      60.697090719435053
   164   0   1   0.0       24.33780878814693      18.154589955814725      60.400448664695041
   165   0   1   0.0      23.570663481038707      19.377037272905035      60.345926163809182
   166   0   1   0.0        24.2775273740199      20.618515530885215      60.118301355598696
   167   0   1   0.0       23.56992837505139      21.882071515442686        60.0865556826503
   168   0   1   0.0      24.270575083415302      23.135411661298452      59.898948270424832
   169   0   1   0.0      23.575614740783337      24.350593027847491      59.850292594469195
   170   0   1   0.0      24.253852544709549      25.545301468349344      59.686162341766874
   171   0   1   0.0      25.746925280642195      15.644230655503529      60.438078165086303
   172   0   1   0.0      26.416822836338884        16.8694371296409      60.122303134230179
   173   0   1   0.0      25.701746741078047      18.136311920204491      60.150423801797288
   174   0   1   0.0      26.370638378684216      19.371856724303555      60.019000553039419
   175   0   1   0.0      25.681560020418498      20.613508955434195      60.008638624708986
   176   0   1   0.0       26.39248335691698      21.856063766490255      59.885543187934296
   177   0   1   0.0      25.701627135172043      23.097539708064552      59.772617563231755
   178   0   1   0.0      26.411595878086295      24.343757181763159      59.624493831062082
   179   0   1   0.0      25.665770342901467      25.538943123935258      59.528622493795325
   180   0   1   0.0      26.399849991401091      26.719028073758459      59.358612271431753
   181   0   1   0.0      27.845088286750542      39.038009612706283      59.704600058164424
   182   0   1   0.0      15.761599236814703      27.994188793795253       60.34367172942224
   183   0   1   0.0      27.815166522615922      29.241638126163974      59.174569404072066
   184   0   1   0.0      15.733425948501905      30.463293329919448      60.375352514622577
   185   0   1   0.0      27.842878089759576      31.660481526403693      59.161019188459107
   186   0   1   0.0      15.767263074712361      32.898489592654904      60.151413124369626
   187   0   1   0.0      27.862468318866778      34.185812101336147      59.084530117033346
   188   0   1   0.0      15.722620718159142      35.383710232643004      60.007282528643863
   189   0   1   0.0      27.862461947530136      36.594000181902814       59.43162342070395
   190   0   1   0.0      15.685276512719257      37.863861681905234       60.01440761581194
   191   0   1   0.0      17.154081385878065      28.005163816428588      60.258649214175144
   192   0   1   0.0      17.822041694477893      29.212520928931543      60.158618568675806
   193   0   1   0.0      17.133465512771508      30.435827310532222      60.216733100597182
   194   0   1   0.0      17.862203916162827      31.666506649603026       60.06003377518276
   195   0   1   0.0      17.156766240978882      32.888943801813753      60.113931132612201
   196   0   1   0.0       17.87513291656845       34.13684625125984      60.042881263492873
   197   0   1   0.0      17.181173885748791      35.404529536654067      60.027126682954609
   198   0   1   0.0        17.8690396074483      36.659502257525865      59.981142214306409
   199   0   1   0.0      17.121455406278969       37.85379344394817      60.000252647196923
   200   0   1   0.0      17.814552325803007      39.074579249518479      60.180843983349199
   201   0   1   0.0      19.291154160518175      39.075318272355041       60.20321291727614
   202   0   1   0.0       20.06284327015673      28.019524176946394      60.199976931421055
   203   0   1   0.0      19.277129191851976      29.194758735440146      60.073900791805094
   204   0   1   0.0      20.008657936793426      30.428017769662276      59.896131902694016
   205   0   1   0.0      19.296477579995674      31.668942634672508      59.884689696054309
   206   0   1   0.0      20.016724827431354       32.87073244840721       59.73999400393398
   207   0   1   0.0      19.316111878530648      34.086264719528465      59.951533320597463
   208   0   1   0.0      19.980176369548026      35.387257487065547       59.83436387146498
   209   0   1   0.0      19.268861493357722      36.583099351108835      59.878257311890238
   210   0   1   0.0      19.952293686611622      37.829793059737646      60.053437896971253
   211   0   1   0.0      21.457267044593255      28.037433701137736      59.943447746380386
   212   0   1   0.0      22.203205623778317      29.210552539270054      59.839364391377323
   213   0   1   0.0       21.42461378834939      30.446313919836697      59.802117064459132
   214   0   1   0.0      22.109665280167437      31.667515205455153      59.551953276495247
   215   0   1   0.0      21.409112514894705      32.915061634873268      59.492372176566874
   216   0   1   0.0      22.103877344780397      34.194381185819438      59.498811026132032
   217   0   1   0.0      21.400474149682758      35.430872506361425       59.62230472488249
   218   0   1   0.0      22.153538569603164      36.636595573069663      59.709843790822283
   219   0   1   0.0      21.407835132998994      37.861666204937713      59.852226216702796
   220   0   1   0.0      22.142338370120797      39.099441218560827      59.929004604041609
   221   0   1   0.0      23.543212799495414      39.072258945853406      59.823269719655997
   222   0   1   0.0      24.324312763227976      28.011106606919455       59.50833066522528
   223   0   1   0.0      23.587822107133245      29.253189808623354       59.58054069929527
   224   0   1   0.0       24.22805383083411      30.489875500869008      59.343786819885153
   225   0   1   0.0      23.497773146229854      31.726561223563557      59.406647726391391
   226   0   1   0.0      24.207396820489564      32.933974354323929      59.221461556804165
   227   0   1   0.0       23.54462698635157      34.206118167855273      59.349768352492383
   228   0   1   0.0      24.328757200684567      35.412538640445604      59.443523315755307
   229   0   1   0.0       23.60099092932159      36.622073591432205      59.617580491498011
   230   0   1   0.0      24.274627680444247      37.870742372198556      59.694838407694881
   231   0   1   0.0      25.719090464667826      27.981137643226923       59.27299857762668
   232   0   1   0.0      26.371873048830317      29.225739827745024      59.197310226197551
   233   0   1   0.0       25.65195948985879      30.490066458698742      59.202505653875939
   234   0   1   0.0       26.42593621143067      31.725721687904457      59.124950206206087
   235   0   1   0.0      25.691183962242416      32.930148034086962      59.136274700271983
   236   0   1   0.0      26.420968000494511      34.229327090783151      59.114533640610553
   237   0   1   0.0      25.721826016935005      35.450398879576547      59.290787180480429
   238   0   1   0.0      26.408853507250765      36.668093582854922      59.478383867413989
   239   0   1   0.0       25.65176421334154      37.912493340771043      59.672409228062342
   240   0   1   0.0      26.384985498375517      39.118168759386805      59.839943196464674
   241   0   1   0.0      27.776057253037632      51.417339018014346      60.467006996136462
   242   0   1   0.0      15.655453120723658      40.331317067511812      60.097327880448169
   243   0   1   0.0       27.82093896482569      41.522836013246042      60.088186432672124
   244   0   1   0.0      15.742773620993489      42.778415707008165      60.054691338488787
   245   0   1   0.0      27.832347907633149      44.006580673700441      60.369197037095851
   246   0   1   0.0       15.74856557513284      45.337865991425474      60.098295359717348
   247   0   1   0.0      27.858427239299075      46.466808387561656      60.362519413000356
   248   0   1   0.0      15.655088404297112      47.779337559824313      60.366458622737177
   249   0   1   0.0       27.79173854432867      48.941206201592806      60.392364771557553
   250   0   1   0.0       15.71524963296757      50.224983130490351      60.560539681197803
   251   0   1   0.0      17.103744396961208      40.300119856717821      60.232570284858063
   252   0   1   0.0      17.872536735906323      41.518371116846261      60.229284999741196
   253   0   1   0.0      17.193004959550017      42.771238918670946      60.056315939786323
   254   0   1   0.0      17.871817838518112      44.033308493897202      60.174796688101651
   255   0   1   0.0      17.174053446229859      45.250583285995894      60.111535918802595
   256   0   1   0.0      17.837236141038343      46.507704438484808      60.274566996610645
   257   0   1   0.0      17.042969318695484      47.716703723807008      60.398489540798906
   258   0   1   0.0      17.840700719608922      48.926256970360527      60.552127083231206
   259   0   1   0.0      17.135238580538875      50.144770666204941      60.730659744854471
   260   0   1   0.0       17.83314940532394      51.378738211761821      60.948271660136861
   261   0   1   0.0      19.272243347463906       51.32995596730769      60.912970788649716
   262   0   1   0.0      20.017260238024051       40.24596073155228      60.365955184828437
   263   0   1   0.0      19.281189078027793      41.512128247589658      60.309295755290421
   264   0   1   0.0      19.962426429064639      42.782940819032312      60.469175799422693
   265   0   1   0.0      19.307978678001266      44.018858794352894      60.360595357318964
   266   0   1   0.0      19.954603434858505      45.266730708173846      60.417159506710242
   267   0   1   0.0      19.251602549485813      46.509207169171837      60.415764414834314
   268   0   1   0.0       20.02148212084429      47.693964372465217      60.498437791851998
   269   0   1   0.0      19.241580465581084      48.888164049750934      60.578513145999409
   270   0   1   0.0      20.034841928253716       50.12381824349481      60.702347557012658
   271   0   1   0.0      21.389198453285886       40.30614938099761      60.194916578559031
   272   0   1   0.0      22.067382519322088      41.527475427262132      60.299539968308963
   273   0   1   0.0      21.398295164878146      42.753490922334926      60.506484834129175
   274   0   1   0.0      22.106753784570991       43.99839410707127      60.600606557015226
   275   0   1   0.0      21.372756200901414      45.194942166989009      60.624322113957902
   276   0   1   0.0      22.102870330729473      46.425411578113604      60.560745014126724
   277   0   1   0.0      21.426985704000188      47.664564840748099      60.601555883420367
   278   0   1   0.0      22.125754213276991      48.870477841974299      60.671123562643757
   279   0   1   0.0      21.438039489891917      50.160981326649022      60.708976634198741
   280   0   1   0.0      22.111685841489855      51.385446236161613      60.857654736740315
   281   0   1   0.0      23.551714535091744       51.44406014780899      60.843520484851112
   282   0   1   0.0      24.272644062342525      40.274316747997368      59.995178708385275
   283   0   1   0.0      23.532362998964853      41.514099605567885      60.253151363885827
   284   0   1   0.0      24.230993703328146      42.758879776583818      60.319722970302799
   285   0   1   0.0      23.547320349962682      43.993733332797603        60.5435749427659
   286   0   1   0.0      24.278137662323537      45.211417416644132      60.560985365264152
   287   0   1   0.0      23.564983244747083      46.440208247365199      60.604372415516949
   288   0   1   0.0      24.307650698654097      47.677216192290665      60.583614554571831
   289   0   1   0.0      23.562245860859957      48.891920422168546      60.622003697309552
   290   0   1   0.0      24.248479587394623      50.126159942787382      60.666091442910918
   291   0   1   0.0      25.676405272970012      40.346886502661327      60.106556676270678
   292   0   1   0.0       26.44136591132585      41.552611678977527      60.212585742856739
   293   0   1   0.0      25.686327111806676      42.735032183943943      60.298360228898865
   294   0   1   0.0      26.395624460974165      43.940606316587854       60.36998831765699
   295   0   1   0.0      25.723501149385868      45.188801290160491      60.480515503463081
   296   0   1   0.0      26.452213588574192      46.409346663678654      60.527591209767692
   297   0   1   0.0      25.744851965071799      47.647438869780267      60.575343734249763
   298   0   1   0.0      26.384502856796843      48.926519922544678      60.576448453584213
   299   0   1   0.0      25.688324633392853      50.151736982344552      60.641551963096134
   300   0   1   0.0      26.357934019753245      51.461925481157422      60.535467885437377
   301   0   1   0.0      27.860711966226301      63.779941937168047      60.777682201981214
   302   0   1   0.0      15.685236423235743      52.612437555545597       60.88679678028241
   303   0   1   0.0      27.814010351852588      53.881734483078205      60.719948013742012
   304   0   1   0.0      15.689907542476703      55.036756678426713      61.199079196265579
   305   0   1   0.0      27.868011739899309      56.364713469051715      60.859975905470066
   306   0   1   0.0      15.713771009515648      57.512278748600622      61.138766060131658
   307   0   1   0.0      27.868442668539647      58.799321773970377      60.670834752253391
   308   0   1   0.0      15.707801085675301      60.035662248055992      61.262104157525442
   309   0   1   0.0      27.836117246156203      61.299476013164124      60.635307626652697
   310   0   1   0.0      15.768244020814732      62.476132975132309      61.303356742740746
   311   0   1   0.0      17.114172830843746      52.601223828176742      60.994955922484152
   312   0   1   0.0      17.819714539619017      53.842083408125923      61.026408258141977
   313   0   1   0.0      17.117992955222608      55.079764643484637      61.105331434022865
   314   0   1   0.0      17.888468007824152      56.329483365101602      61.165420424358715
   315   0   1   0.0      17.121124561796304      57.544596051596926      61.136826366042939
   316   0   1   0.0      17.897087876510049      58.802057538257316      61.088795067215877
   317   0   1   0.0       17.14807396507814      60.080390219590981       61.16886655219254
   318   0   1   0.0      17.895000744522338      61.260220333846981      61.111229017226904
   319   0   1   0.0      17.162480081371271      62.508201064790285       61.29114030706743