LAMMPS data file via write_data, version 4 Feb 2025, timestep = 100000, units = metal

1560 atoms
2 atom types

0 25.668 xlo xhi
0 24.7 ylo yhi
0 75 zlo zhi

Masses

1 1.007999999740698
2 15.99899999588435

Atoms # full

792 0 1 0 5.163915646553879 3.927436911995773 1.3690322849332877 2 0 1
1301 0 1 0 5.109739733666451 1.50345384610576 3.6077382175750685 2 1 1
551 0 1 0 4.197537709149415 4.757628630438822 3.0351507021297794 1 1 1
316 0 2 0 1.008363648613942 4.623236410470136 1.8574102279517057 2 0 1
1501 0 2 0 3.816205713374776 1.818099522714787 0.4246110925003657 2 1 1
790 0 2 0 5.915225511765334 3.60041996333334 0.8250239526060428 2 0 1
1302 0 1 0 3.5492426375303454 1.4249091520957016 3.6650436026903486 2 1 1
550 0 2 0 3.906333090093123 4.76175340903355 2.132607091888487 1 1 1
272 0 1 0 2.473083556143615 1.1837897146796523 1.771327353036477 2 0 1
160 0 2 0 5.176698983078295 5.538091653618581 4.30032863602329 1 0 1
552 0 1 0 3.99812971968001 5.668387014275276 1.8261970252687678 1 1 1
260 0 1 0 1.7317671620844868 1.7881245976170626 4.1289609697089835 1 0 1
1388 0 1 0 4.695283267241184 0.41555147856149877 1.0734294162419782 2 1 1
273 0 1 0 1.1387817746748135 0.6120381420007931 2.385924724999679 2 0 1
1502 0 1 0 4.584046137248036 2.4599133105404616 0.37572777951855213 2 1 1
271 0 2 0 2.092414352828098 0.8077174063582186 2.614009233187139 2 0 1
317 0 1 0 1.8783336840259754 4.300331283150856 2.092939352408859 2 0 1
1300 0 2 0 4.343282384079639 1.3843269699104284 4.17765917920121 2 1 1
318 0 1 0 1.1900647231262378 4.985734954206879 0.9462341202706165 2 0 1
1161 0 1 0 1.3911983554095346 5.988049156261072 4.3825749678153425 2 0 1
1160 0 1 0 0.7980831676412619 6.135408761724849 2.9911910866355065 2 0 1
791 0 1 0 6.016661594203507 4.263509441560003 0.15513106116592823 2 0 1
1165 0 2 0 1.4128599699766513 0.7781701260845412 9.116934947306374 2 0 1
825 0 1 0 4.134675013644956 5.099425755796521 7.780124708872616 2 0 1
1148 0 1 0 3.03199206297799 3.322535008908589 7.837727996774287 2 0 1
1436 0 1 0 2.040743871068276 4.786442785410495 6.272430333843696 2 1 1
1147 0 2 0 2.499241110833801 3.9785567141893714 8.390336753531582 2 0 1
924 0 1 0 3.984135685245003 1.3306042094648398 7.493579711625366 2 1 1
658 0 2 0 6.175369889618922 3.4103975357098517 6.069678817592617 1 1 1
922 0 2 0 3.6687432309651076 2.110057687757102 6.955659232836204 2 1 1
259 0 2 0 1.6563618043369397 2.264168163536911 4.993721686429921 1 0 1
923 0 1 0 3.481338823834328 1.873133002599404 6.007870899364553 2 1 1
823 0 2 0 4.553560100272157 5.8701488960458565 7.263246192315852 2 0 1
659 0 1 0 5.360601538561816 2.900632438832104 6.2795867935088046 1 1 1
1385 0 1 0 0.7635727908781133 3.621700493725424 8.60297605620998 2 1 1
1166 0 1 0 1.5916466096616126 1.731827594078864 9.005913984341166 2 0 1
162 0 1 0 4.490901047327577 5.977712903486007 4.863776937264699 1 0 1
1435 0 2 0 2.1653689259012134 4.80756286687234 5.275296508708857 2 1 1
1437 0 1 0 1.9415620636731201 3.823420508840735 5.000540757685326 2 1 1
161 0 1 0 5.502838133534244 4.976484273798306 4.970483323355004 1 0 1
261 0 1 0 1.125316408178643 1.7201570657122287 5.6083943051440155 1 0 1
1293 0 1 0 0.8694098489384325 0.5440044446144183 7.394362466368369 2 1 1
1149 0 1 0 3.04602800631791 3.852597986873954 9.202749948040982 2 0 1
1291 0 2 0 0.49719734499744045 0.16980892737358647 6.5901940582951335 2 1 1
106 0 2 0 4.32855518158086 0.009861465148404766 8.311189139580176 1 1 1
1395 0 1 0 5.501881264650112 2.61986768553215 12.343192784549935 2 1 1
472 0 2 0 4.569350526562536 2.3993847466433906 10.033515237428402 1 1 1
1393 0 2 0 6.144183529089895 2.164502940546844 12.884939261250297 2 1 1
473 0 1 0 4.372644301375396 1.58109997271673 9.573202932573032 1 1 1
23 0 1 0 5.582356952498539 0.5231142884105384 11.951926380408366 1 0 1
1167 0 1 0 0.6863506297992301 0.7502190434146074 9.76220411591821 2 0 1
474 0 1 0 5.491646435965284 2.576154953589518 9.611183564441681 1 1 1
323 0 1 0 4.705711290315469 1.0692760911364028 60.60290009143406 1 0 0
246 0 1 0 2.8138588662883808 1.938885614748899 64.7089315793495 1 0 0
917 0 1 0 4.398678637120624 4.156726162719441 62.98124046221287 2 0 0
1355 0 1 0 4.823318835690756 0.8760552287905619 63.97809062979329 2 1 0
245 0 1 0 1.3314976104541112 2.5274991955726267 65.10485142363513 1 0 0
244 0 2 0 2.299535346492868 2.583855097913879 65.27843219798021 1 0 0
918 0 1 0 2.958780415571106 3.9710944945318594 63.3232980409727 2 0 0
324 0 1 0 3.5897674788510137 2.039312516091086 61.24266262415058 1 0 0
916 0 2 0 3.5069333067453465 4.248760499223926 62.58340053543158 2 0 0
1354 0 2 0 3.882469640348488 0.6396921811730095 64.13125034133056 2 1 0
1356 0 1 0 3.703605410765484 0.33525009541393275 63.20118323139453 2 1 0
120 0 1 0 3.3319324582910657 6.0476768807605525 62.970954399231914 1 0 0
926 0 1 0 2.881884517483955 5.785906242510144 65.2917830979901 2 0 0
422 0 1 0 6.295609568690815 4.391208888051624 64.63725965298882 1 1 0
322 0 2 0 3.7510041334127546 1.1401331903363179 60.94570820274935 1 0 0
1016 0 1 0 0.6591849269671574 5.246644819059505 67.12257047136094 2 0 0
1434 0 1 0 2.4930055513123626 4.716682185312397 69.7054632788194 2 1 0
882 0 1 0 1.43998456957129 1.050183111059466 68.69822307527085 1 0 0
410 0 1 0 6.285465242116027 4.94203397146504 67.86406792520299 1 1 0
297 0 1 0 4.599881834532058 2.154773359028126 69.29973557566338 1 0 0
295 0 2 0 5.373421480898808 2.341204290277183 68.59861487463068 1 0 0
930 0 1 0 4.6594630772139904 4.563586792115791 66.34242370736946 2 0 0
1432 0 2 0 3.262006572853128 4.642074075730604 70.295081282727 2 1 0
807 0 1 0 3.2068248657625302 0.6788301197105864 69.84471058719667 2 0 0
929 0 1 0 5.623833173518586 3.4342295574179365 66.91040056504232 2 0 0
880 0 2 0 2.2717454619069994 0.9648647007856757 68.22955434877402 1 0 0
928 0 2 0 5.590743461143449 4.255439893374122 66.36137166999578 2 0 0
881 0 1 0 2.6331309595185055 1.8316703922345534 68.03030973496435 1 0 0
925 0 2 0 2.867947849332438 5.06402484291312 65.94051059818136 2 0 0
927 0 1 0 2.4400756055911508 4.17830405683894 65.6582385389643 2 0 0
296 0 1 0 5.71937044547485 3.1022484567784074 69.06538562116297 1 0 0
54 0 1 0 4.471975887574024 5.629072691763943 70.66906668068772 1 0 0
797 0 1 0 0.1968775520439494 5.54640019108226 73.90389207867143 2 0 0
898 0 2 0 5.291361129006286 5.022727264131081 73.45832268402302 2 0 0
900 0 1 0 4.482092068776008 4.638347592209698 73.13652610471091 2 0 0
258 0 1 0 2.4482164308032424 2.464809808255293 72.55292595554387 1 0 0
796 0 2 0 1.12793244597269 5.454730225231657 74.20141806644715 2 0 0
52 0 2 0 5.38074853247011 6.126456034168738 70.86342374428939 1 0 0
899 0 1 0 5.586138941415621 5.496083926894656 72.61563806778902 2 0 0
1503 0 1 0 3.439710926438762 1.782054280132476 74.48844179316 2 1 0
1134 0 1 0 0.3295122694035419 3.233338140696795 71.11777460330933 2 0 0
257 0 1 0 2.0389885838291235 3.646129575635795 73.44613714790344 1 0 0
583 0 2 0 0.4983977161984701 1.3950758010323314 71.86878553031526 1 1 0
256 0 2 0 2.76905967577512 3.3485397838005455 72.92410730102627 1 0 0
101 0 1 0 5.87200338374401 2.3400524471617383 73.49959386219984 1 0 0
806 0 1 0 4.422038970721528 0.8667011871229803 70.82561902779015 2 0 0
1433 0 1 0 2.9763174765939464 4.257078051112789 71.12782473621625 2 1 0
805 0 2 0 3.6726323014633433 1.3268513449696284 70.4527080154816 2 0 0
954 0 1 0 6.152143125058094 0.5645256007587438 71.74720197384143 2 0 0
1132 0 2 0 0.04785322288190875 3.9976245624344506 70.66060610319069 2 0 0
585 0 1 0 0.005322839755784217 1.1139649143740755 71.09807442311342 1 1 0
359 0 1 0 0.9995288670508005 5.81325471691275 70.5991954999256 2 0 0
584 0 1 0 0.004819585393565973 1.0908748434034254 72.6699583848852 1 1 0
873 0 1 0 1.2276841603510313 10.259150999120335 2.2041194988476867 2 0 1
871 0 2 0 2.0683355361147653 9.75801872618442 2.255918338473883 2 0 1
1268 0 1 0 5.294987623938216 11.877579468124736 4.521534098881563 2 0 1
76 0 2 0 3.264523632628302 8.339924704022827 4.5589887362821555 1 0 1
78 0 1 0 4.002411566073123 8.97631062779688 4.4256664063787925 1 0 1
121 0 2 0 4.037121169702885 7.3306204817418505 1.4918563949713293 1 0 1
1159 0 2 0 0.7627372645948369 6.572515400760609 3.843166071807853 2 0 1
1194 0 1 0 6.098770607362705 9.945809105721779 4.038030017656725 2 0 1
123 0 1 0 4.951613086260571 7.708423770935603 1.4813157646365187 1 0 1
122 0 1 0 3.466854789641072 7.823874981864369 2.1486772373131315 1 0 1
872 0 1 0 2.0447217333740224 9.051722437217224 1.5871450321958724 2 0 1
312 0 1 0 4.718267851623354 11.107950340478602 0.8579576883184424 1 0 1
311 0 1 0 3.1895183723573752 10.894721064472641 1.1631635988663014 1 0 1
1557 0 1 0 0.45114005861536494 8.894466829213195 4.143230097054552 2 1 1
624 0 1 0 6.314632120057628 6.596695640803757 3.3748880729061153 1 1 1
310 0 2 0 3.8843110174012163 11.551142448973447 1.1245032167561524 1 0 1
77 0 1 0 2.5324578024643585 8.82705862419171 4.184765298766897 1 0 1
1269 0 1 0 4.7500309780746965 12.126647071869138 3.0340812509733643 2 0 1
824 0 1 0 4.0687745002788445 6.662704209569494 7.55728354181768 2 0 1
1122 0 1 0 6.027848694877739 10.345511733154613 8.847581275927826 2 0 1
808 0 2 0 3.282560637277652 8.43459278322245 7.567509280479784 2 0 1
1192 0 2 0 5.488671015743555 10.020762975227012 4.850425476187884 2 0 1
810 0 1 0 3.3826584600292415 8.462268662990612 6.583643342415208 2 0 1
1336 0 2 0 0.5545833408566798 8.799143167068292 7.747932987424541 2 1 1
809 0 1 0 3.9941118096558457 9.091619659809826 7.935277830516902 2 0 1
1338 0 1 0 1.542314279508251 8.723160814632706 7.7404957025922485 2 1 1
1121 0 1 0 4.648819053152345 10.8834285317626 9.274126503712079 2 0 1
1120 0 2 0 5.160693609414772 10.605386064862653 8.497340223107635 2 0 1
1193 0 1 0 6.142553931326827 9.898954711670717 5.579746694095063 2 0 1
1278 0 1 0 5.56925913594316 12.081891968315206 7.258591213451572 2 0 1
1555 0 2 0 0.18036235448170443 9.45267231505676 4.8766726898099035 2 1 1
1337 0 1 0 0.26799164503850004 8.737677914805248 6.8343809655608 2 1 1
939 0 1 0 0.712458686582498 11.936325766166151 8.223081206488759 2 0 1
938 0 1 0 0.2974616487931226 10.420997598085018 8.462358413901821 2 0 1
1556 0 1 0 0.764502684843701 10.233458071968894 4.934500094557004 2 1 1
467 0 1 0 3.0448691016481813 11.927204801072314 10.628258633259351 1 0 1
466 0 2 0 3.994584570656867 11.995540827682689 10.66540422071751 1 0 1
960 0 1 0 5.17523260588524 10.243598291310388 62.712972796076016 1 0 0
1527 0 1 0 4.157238761841684 11.169000554134781 64.89141361992948 2 0 0
230 0 1 0 0.25810410907073095 8.258759412495053 64.30586359400347 1 0 0
1038 0 1 0 1.75430472720446 9.65901877009501 65.57509258511546 2 0 0
1525 0 2 0 3.193286495500841 11.161545004038842 65.05349374057688 2 0 0
1036 0 2 0 0.7803577338517202 9.634847983197174 65.39461738095854 2 0 0
1298 0 1 0 1.343347090873638 12.09618618987584 62.89896402675148 2 0 0
958 0 2 0 5.477843450319995 11.070668664733978 62.19565872448837 1 0 0
118 0 2 0 3.1462903878374853 6.757500381912454 63.69328881238778 1 0 0
119 0 1 0 3.9366010769384823 7.353464563340151 63.53349139888997 1 0 0
1526 0 1 0 2.8828140195623644 11.531370310847464 64.17722311863331 2 0 0
959 0 1 0 4.5959862329701515 11.441770138661088 61.949814030926504 1 0 0
667 0 2 0 5.432165363150451 8.364593389206684 63.87369439531025 2 1 0
668 0 1 0 5.4895958924684365 8.077248610290962 64.80931624131073 2 1 0
231 0 1 0 1.2846779226786254 7.2896023849483855 63.55458249068862 1 0 0
1037 0 1 0 0.42882313332612226 10.505829300712625 65.04039934898 2 0 0
229 0 2 0 0.32283326111604443 7.509972015196505 63.65952963979486 1 0 0
669 0 1 0 6.186402866065638 8.086214890715176 63.41023790243196 2 1 0
1297 0 2 0 2.259181107281987 12.344697781530202 62.71925641686423 2 0 0
112 0 2 0 2.083064129038852 7.35913851857457 67.68474743321846 2 0 0
1400 0 1 0 3.676806784487385 8.910329626271094 69.37112404207801 2 0 0
1334 0 1 0 5.708867418383892 6.921472442805784 67.05855419032424 2 1 0
562 0 2 0 2.225271970669092 9.947047648294951 68.95185474764848 2 0 0
563 0 1 0 2.240072236908758 10.863846871421208 68.56475123302208 2 0 0
1049 0 1 0 5.925618049240754 11.807487784587272 69.49716614698346 2 0 0
282 0 1 0 3.137793771343912 11.995047187330876 66.83742752255347 1 0 0
1333 0 2 0 5.212367483354787 7.713103488348562 66.74546777319496 2 1 0
113 0 1 0 2.544744277342713 6.574331804790672 67.25541149662634 2 0 0
1401 0 1 0 5.09928457953407 9.158834740768802 69.85453793964109 2 0 0
564 0 1 0 1.3919256632437544 9.673056090564701 68.63398573707535 2 0 0
114 0 1 0 2.8517782592368857 7.916200059476643 67.81295779622756 2 0 0
360 0 1 0 1.609179625189914 6.791966702949705 69.64722135659188 2 0 0
1335 0 1 0 5.782003667211497 8.493338144491874 66.96893865698814 2 1 0
1399 0 2 0 4.346312922646683 8.539732994371631 69.96994874180655 2 0 0
1361 0 1 0 6.122940881651929 11.044041464870382 66.33709820257423 2 0 0
1203 0 1 0 0.00908290568682446 9.800365322000072 66.9790346882156 2 0 0
358 0 2 0 0.931461765867263 6.770988499909496 70.30041525694521 2 0 0
1066 0 2 0 1.9324038449580867 8.12152152403663 74.135279443513 2 0 0
1098 0 1 0 4.388997298045913 8.905826900894139 71.83897736159099 2 0 0
1096 0 2 0 4.512840270911919 9.318512416192954 72.71882655442899 2 0 0
1286 0 1 0 1.9300257113039314 11.182349536741174 72.78416546901533 2 0 0
1097 0 1 0 3.9901988210619637 10.143110468182602 72.66127954258609 2 0 0
1287 0 1 0 2.344597646594411 10.773885836649765 71.32803251448871 2 0 0
1068 0 1 0 1.2161305906194506 8.47258066325033 73.58400518588446 2 0 0
1047 0 1 0 6.319833008697956 9.89588012316016 72.30855927941508 2 0 0
1067 0 1 0 2.775279219829175 8.109296899657311 73.6708898493179 2 0 0
53 0 1 0 4.958951765180895 7.013839748551368 70.59399207493331 1 0 0
798 0 1 0 1.4416022371150399 6.397847039328823 74.07141712328523 2 0 0
133 0 2 0 0.4282549155924697 8.90409896177855 71.81208252802767 2 0 0
1285 0 2 0 2.6653847774812607 11.3278956856831 72.07890219681467 2 0 0
1409 0 1 0 0.003257162735762563 11.632267200022305 74.87289898733806 2 0 0
134 0 1 0 0.7513563687980973 8.103673609395406 71.38762909132598 2 0 0
1408 0 2 0 0.310349293526694 11.30092388629807 74.05146181087564 2 0 0
71 0 1 0 0.9463669409413853 12.801784869304983 4.25872305633867 2 0 1
1280 0 1 0 3.641926867914803 15.686853339740265 0.011979903090547436 2 0 1
1499 0 1 0 4.350767631038402 14.53679988285093 4.355639230427065 2 0 1
1513 0 2 0 5.859275034513942 15.919792957003263 0.05382789638136628 2 0 1
1281 0 1 0 2.300658026191076 15.404068996313988 0.8271925206797952 2 0 1
1111 0 2 0 1.524686105714409 18.33982224938142 2.9666819200414927 2 0 1
1113 0 1 0 2.3441639974576534 18.053359364817332 3.3654829514076847 2 0 1
70 0 2 0 0.3097468389048901 13.12574545478194 3.6187649817432113 2 0 1
1022 0 1 0 1.5984241233322807 13.821558185187943 2.542001044159372 2 0 1
1023 0 1 0 2.930258502136023 13.095223228902507 1.9329009294134378 2 0 1
1021 0 2 0 2.49751436958456 13.95664738863508 2.141660620052871 2 0 1
1498 0 2 0 3.4401557454512113 14.883494180863238 4.494838209373615 2 0 1
1500 0 1 0 3.03731960007902 14.593488482791663 3.61661551884202 2 0 1
1267 0 2 0 5.246129642528708 12.554278916263964 3.79426257458674 2 0 1
1238 0 1 0 3.452236050863081 16.670028265204294 4.683248446877066 2 0 1
332 0 1 0 2.154163492969394 12.798585888579122 6.10230887429204 2 0 1
961 0 2 0 4.917318996746534 14.456834667223943 9.005572181479282 2 0 1
996 0 1 0 2.090531336281176 17.917527836831393 6.262130853328932 2 0 1
470 0 1 0 6.397242791380848 17.77584720667533 6.359623474747803 1 0 1
956 0 1 0 3.2809153917676754 16.006756604868176 8.461887892899718 2 0 1
994 0 2 0 1.3842439249941412 17.980276077262506 6.97170424359488 2 0 1
1276 0 2 0 5.371490976292754 12.948349373439306 6.773675080998019 2 0 1
957 0 1 0 2.016323874507503 16.641959774232422 7.822126228373371 2 0 1
786 0 1 0 0.4869688526246899 13.777467775141188 6.842393191532024 2 0 1
962 0 1 0 5.235067343134128 14.006942601555323 8.110985026595086 2 0 1
963 0 1 0 5.6599379898679745 15.0308152419666 9.209679085702728 2 0 1
785 0 1 0 1.5686193188996076 14.326569796680264 7.891227040123498 2 0 1
955 0 2 0 2.334461887411724 15.869768513631636 8.348721583100337 2 0 1
784 0 2 0 1.1844914627456054 13.528880052795838 7.496031663184225 2 0 1
333 0 1 0 3.0361777528380482 13.10095081666091 4.917569382288069 2 0 1
1277 0 1 0 4.480013963826751 12.834778184469203 6.375730309260982 2 0 1
331 0 2 0 2.4885476570710883 12.379861977673722 5.27977700749754 2 0 1
1239 0 1 0 4.008558173533255 18.15548588596578 4.956950407410942 2 0 1
1237 0 2 0 3.21065504879109 17.60899683219905 4.930033823982622 2 0 1
468 0 1 0 4.095660031740221 12.870262770314232 10.270658426152334 1 0 1
911 0 1 0 0.7021971487411944 17.02030481812905 9.777106214464256 2 0 1
1304 0 1 0 5.347272440548749 15.279452043836784 65.41609114076681 2 0 0
525 0 1 0 3.6775719914326075 17.806441696064752 62.57638723375555 2 0 0
1299 0 1 0 2.28705247804732 13.31280229352846 62.92318106582123 2 0 0
524 0 1 0 4.400611719913041 17.199666774514835 63.93183552008851 2 0 0
846 0 1 0 0.40618875925165493 15.184915079267238 64.55215793371731 2 0 0
841 0 2 0 2.421867343705222 14.890277410229425 63.99838402904144 2 0 0
1522 0 2 0 1.5078299134646933 18.037770299394676 64.61972075810215 2 0 0
842 0 1 0 2.941687357065268 15.651679445224111 63.59796589852039 2 0 0
843 0 1 0 2.9826617591850355 14.625642693803018 64.81326431244811 2 0 0
1523 0 1 0 0.9384857892433826 17.210315931462773 64.88351374678165 2 0 0
523 0 2 0 3.7188768740404816 17.03457764447343 63.23759775306441 2 0 0
742 0 2 0 6.326301479905468 16.67734013190556 65.06527461423124 1 0 0
1524 0 1 0 2.2046388006731807 17.66672729292697 64.06752594208645 2 0 0
1258 0 2 0 5.9095367103125085 12.45285877759858 65.49024805957703 2 0 0
1259 0 1 0 5.28265387794067 13.243096084141682 65.61128317930782 2 0 0
1260 0 1 0 6.354552506931572 12.375566446285676 64.62389694771198 2 0 0
743 0 1 0 5.984269675133653 17.45730192890121 65.52213127315736 1 0 0
845 0 1 0 0.3995751615670906 15.676504078991412 66.11218761245298 2 0 0
63 0 1 0 2.030755867269329 15.069538567592767 68.3780900845807 1 0 0
1136 0 1 0 4.259308645053272 15.7024975496521 69.23234532570876 2 0 0
62 0 1 0 0.6724702740372099 14.244086639022154 68.32590631360578 1 0 0
1478 0 1 0 5.544674713877991 13.918676561361739 70.17049533310409 2 0 0
1135 0 2 0 3.8563152065702457 15.943112147800347 68.35383924341785 2 0 0
292 0 2 0 6.306379262521045 18.255301128544094 69.8413279090348 1 -1 0
61 0 2 0 1.4216437804655149 14.580219047787738 67.73806971241625 1 0 0
281 0 1 0 2.481577014341348 13.152978734466767 67.65580512248198 1 0 0
897 0 1 0 2.747197034592752 17.724818437691823 70.04116681521896 2 -1 0
895 0 2 0 2.932104194548242 18.418916228962132 69.3500647707735 2 -1 0
1137 0 1 0 3.6561234209663898 16.914791849384926 68.38748968372941 2 0 0
1305 0 1 0 4.520927784676817 14.936045481127085 66.68777025367528 2 0 0
1048 0 2 0 5.7503056607858625 12.690521056306512 69.10552316088969 2 0 0
1050 0 1 0 4.835053556228808 12.719190245678954 68.68965346001065 2 0 0
1303 0 2 0 4.638424554803998 14.659304399698907 65.74205194118656 2 0 0
293 0 1 0 5.692129259953144 18.491345143863782 69.05928210517092 1 -1 0
280 0 2 0 3.136683295445009 12.42220438793285 67.7882213508936 1 0 0
1358 0 1 0 5.46594537662095 17.693212722998023 71.2778779182363 2 0 0
1359 0 1 0 4.2529107421306485 17.027424395559358 71.94945185928691 2 0 0
1279 0 2 0 2.6653713418881315 15.574839252678718 74.93887648124576 2 0 0
1479 0 1 0 4.532295985954731 14.40401838603169 71.40443749048008 2 0 0
1357 0 2 0 4.977562342792658 17.648021667616614 72.08328104981302 2 0 0
1054 0 2 0 2.826731255396592 14.343923493073014 72.36646401605854 2 0 0
1205 0 1 0 0.8241984474785231 16.30581685373099 70.75644958857829 2 0 0
1514 0 1 0 6.046996492866695 15.49599523083646 74.18620458556556 2 0 0
1056 0 1 0 2.6562313642594484 14.72700931400579 73.32558451992293 2 0 0
1206 0 1 0 2.111050523571978 15.690372996484472 71.28159783642242 2 0 0
1055 0 1 0 2.808374918322082 13.368560760355384 72.2263364947968 2 0 0
1477 0 2 0 5.149565950415617 14.70379451378513 70.76056088772928 2 0 0
1204 0 2 0 1.7677938453163293 16.48522635345433 70.8687649049923 2 0 0
1486 0 2 0 1.8020060380599725 18.30532872412976 74.97362902742222 2 0 0
1367 0 1 0 0.25711004753072486 18.06177016676304 74.21483807859573 2 0 0
1515 0 1 0 6.10021211460241 16.836446025672302 74.84699310658262 2 0 0
1487 0 1 0 2.217607538678299 17.423866377904368 74.78405275368691 2 0 0
592 0 2 0 6.10576859587139 18.96090851590031 0.7320070989143973 1 0 1
594 0 1 0 5.596634208063113 19.415880059642177 0.03506208974313908 1 0 1
1252 0 2 0 3.7728280116559585 22.01870109134114 1.9419587936439076 2 0 1
1044 0 1 0 0.8302515673387738 21.599789900667684 2.6295230793899007 2 0 1
1387 0 2 0 5.226806588696251 24.27358123215084 1.08264387573186 2 0 1
838 0 2 0 4.840049940282596 19.63059267493361 3.110114969055012 2 -1 1
1043 0 1 0 1.6904835838395558 20.455265589148375 3.3059655819311144 2 0 1
1389 0 1 0 4.624896976592574 23.665370116001824 1.5041055427860612 2 0 1
1042 0 2 0 1.5023408483139418 21.384772764467982 3.323439506509695 2 0 1
1254 0 1 0 3.0344156540110685 21.97573348912904 2.5829211791522058 2 0 1
840 0 1 0 5.550209863792126 19.9956714294176 3.700457425190803 2 -1 1
839 0 1 0 5.283389534393082 19.178912234609648 2.3445482455094364 2 -1 1
1253 0 1 0 4.272036137080477 21.284674729435086 2.294590107103539 2 0 1
1073 0 1 0 4.726464240895095 24.41478717166678 4.609116792399152 2 -1 1
1112 0 1 0 1.7062093259748692 18.546011508875427 2.0479939013691535 2 0 1
1074 0 1 0 5.531837281640417 23.010143278453295 4.942237368556434 2 -1 1
1198 0 2 0 1.4651878849729003 20.782962537019237 7.392593590540514 2 0 1
1441 0 2 0 5.395908853708787 19.072939460233126 6.436265669011126 2 0 1
1292 0 1 0 1.1933505893484824 24.249945480793556 6.295191938975856 2 0 1
107 0 1 0 3.5523413177487235 24.285719984480757 8.737723785950331 1 0 1
108 0 1 0 5.031259702064422 24.000880937132766 8.197655200554586 1 0 1
340 0 2 0 3.9566960113717364 20.23419246526933 8.571797336986048 1 -1 1
1199 0 1 0 0.7294392101423787 21.098267253545465 7.985303710283306 2 0 1
341 0 1 0 3.017528911009954 20.51465909730865 8.393931490566901 1 -1 1
995 0 1 0 1.4136981974901301 18.927561918503322 7.162174131049333 2 0 1
1465 0 2 0 2.255349057299122 22.875783909682333 5.7443429587060475 2 0 1
1200 0 1 0 1.9425501245306125 21.482473912864624 6.817782794801616 2 0 1
1443 0 1 0 5.835416398744091 19.688830434929248 5.863673195075271 2 0 1
342 0 1 0 4.320784876847106 20.957048410883395 9.136005380131591 1 -1 1
1467 0 1 0 3.220530681641513 23.22926184685351 5.752924813055613 2 0 1
1072 0 2 0 4.825786533720175 23.59998497442125 5.251228548043155 2 -1 1
1442 0 1 0 4.864184158339937 19.611640725720022 7.159300883031591 2 0 1
1466 0 1 0 2.069011048507701 22.43893661144865 4.881712188591138 2 0 1
1172 0 1 0 2.080657955252666 22.99089085930737 10.554000415879074 2 0 1
22 0 2 0 5.220516738301401 24.315353400971855 11.68034944757099 1 -1 1
1171 0 2 0 2.973068235512064 22.556525752771424 10.547955450871939 2 0 1
1173 0 1 0 3.3485093124710135 22.525404103781394 11.436033871275615 2 0 1
24 0 1 0 4.465054486667059 24.5221787477407 11.106033222263989 1 -1 1
1188 0 1 0 6.107466442257889 23.382930870627494 10.258293862422084 2 0 1
1186 0 2 0 6.193668418720527 22.890999729496606 9.416167912634688 2 0 1
1377 0 1 0 4.661143151346229 21.550348403017672 63.344181063008534 2 0 0
1472 0 1 0 4.425658520901807 20.673971408428162 65.34878317331882 2 0 0
1226 0 1 0 0.674891153022267 18.90297371219687 63.18822166674413 2 0 0
1531 0 2 0 2.2887251574219323 23.239833757317612 61.74276678715241 2 0 0
648 0 1 0 2.2858406116706016 19.344333491807813 61.61212931402874 1 0 0
1225 0 2 0 0.5562569219839156 19.338499405595133 62.31071196634145 2 0 0
647 0 1 0 3.5774676789665 20.20953577596693 61.5195674799336 1 0 0
1471 0 2 0 4.930386798721737 21.513996146485127 65.06984135357584 2 0 0
888 0 1 0 1.0793846291695164 22.77565014886841 63.250923632293514 2 -1 0
1375 0 2 0 4.763433048459638 21.749113754867388 62.38216941344042 2 0 0
886 0 2 0 0.5039149083085223 22.265053883163247 63.85675970862184 2 -1 0
646 0 2 0 3.2685375686542706 19.28424563638699 61.555242371827966 1 0 0
1533 0 1 0 3.060815788499514 22.740093465622007 62.035434467882375 2 0 0
1532 0 1 0 2.6309576498301714 24.012419614472492 61.176716815045 2 0 0
1376 0 1 0 5.5087796134498905 22.340161475003466 62.290175212860525 2 0 0
68 0 1 0 0.3956299045991927 23.583980233549884 65.30887740393499 2 -1 0
1263 0 1 0 2.6086427151807836 18.91694391731729 65.41783567776608 2 0 0
1473 0 1 0 4.367533701523199 22.25588039686254 65.42116996895962 2 0 0
1227 0 1 0 0.6543764649223004 20.288218326535944 62.599733616643604 2 0 0
321 0 1 0 5.653778101019555 23.83598462777257 65.48818286441166 1 -1 0
1456 0 2 0 5.567176846694991 18.68399760345515 66.7482267584631 2 0 0
1423 0 2 0 2.7675098553249593 22.641580946229606 69.37600984290731 2 0 0
1457 0 1 0 6.206378352437003 19.357781726035373 66.65437288308102 2 0 0
69 0 1 0 1.4038758257618242 24.08936226772827 66.4326601909104 2 -1 0
965 0 1 0 1.7666929075995652 21.63588052688525 68.31725467056242 2 0 0
1424 0 1 0 3.4039260579936887 21.93336279136518 69.66361122299264 2 0 0
576 0 1 0 3.7155879595786048 22.896846700261875 67.6398931592108 1 0 0
1425 0 1 0 2.6047289652525283 23.188573260405313 70.17574312246511 2 0 0
67 0 2 0 0.42580836673085737 24.040037033744856 66.1796210257956 2 -1 0
966 0 1 0 0.8197738149180775 22.027780450600336 67.14121358498659 2 0 0
574 0 2 0 3.5348401858405034 23.347579071213747 66.76311325790672 1 0 0
1318 0 2 0 0.3430206615781676 18.77691761345005 68.07466508525954 2 0 0
1261 0 2 0 3.1933235136007085 19.553061636984705 65.89200513614546 2 0 0
1458 0 1 0 4.738957459009709 19.064472655028435 66.44599894785526 2 0 0
575 0 1 0 3.505732395449182 24.269377020056574 67.04958862827583 1 0 0
964 0 2 0 1.4965230913166263 21.322424816279838 67.42490925258798 2 0 0
1262 0 1 0 2.6126705274266264 20.175810936448162 66.39168707762074 2 0 0
1320 0 1 0 0.5466314930082058 19.707985021706946 67.93665382660129 2 0 0
896 0 1 0 2.109178059789719 18.549180744347424 68.75861159227885 2 -1 0
1006 0 2 0 2.2171498391517694 23.73447423910932 71.73844875255391 2 -1 0
998 0 1 0 5.14101511340313 23.461205691584343 74.33315524267489 2 -1 0
1008 0 1 0 1.7272228366999653 24.54432083891679 72.04423701388035 2 -1 0
997 0 2 0 4.936838821389027 23.32413687058615 73.36196665495697 2 -1 0
1497 0 1 0 3.5004267712456985 20.72070796323673 73.10091037146967 2 0 0
1488 0 1 0 2.312044113437327 18.970900764063238 74.43815694990724 2 0 0
1321 0 2 0 1.015859937943707 21.448535680219553 72.51542996838113 2 0 0
1495 0 2 0 3.642367338627985 19.820470972325772 73.5450879923532 2 0 0
1007 0 1 0 1.6229294957976517 22.977601477124644 71.93048951600794 2 -1 0
999 0 1 0 3.927362978361438 23.3812723257146 73.27234253354132 2 -1 0
627 0 1 0 6.232976648341625 22.064935424622202 72.90861980138797 1 0 0
1493 0 1 0 5.088186953351649 20.35138060547223 70.78317824169538 1 0 0
1496 0 1 0 4.095829758067354 19.26977616410281 72.93265515074785 2 0 0
952 0 2 0 5.757809941140182 24.574144769658005 71.08799454918687 2 -1 0
1323 0 1 0 0.7999069163165212 20.617204185556393 72.01435983118932 2 0 0
953 0 1 0 5.281174244349456 23.963670989375476 71.68372713933003 2 -1 0
517 0 2 0 0.20157066570631327 19.2760657961234 71.24600221588604 1 0 0
1492 0 2 0 4.153966733653268 20.57716156927116 70.72036323047502 1 0 0
1322 0 1 0 0.2891874617026549 21.520357977311747 73.13586061269922 2 0 0
518 0 1 0 1.00816411472267 18.68590489048073 71.32169067638631 1 0 0
1494 0 1 0 3.629693186240906 19.857047548772734 70.32209689789069 1 0 0
692 0 1 0 12.27408053697749 4.087395425634929 3.8519684520741473 1 1 1
691 0 2 0 11.944869899644932 3.140988914348351 3.7111345683287276 1 1 1
1019 0 1 0 8.276695452153437 3.6068386563767567 4.2885419835395755 1 0 1
349 0 2 0 6.99754068458761 2.2527075190466457 2.9273960263847076 1 0 1
351 0 1 0 6.828413821483233 2.707687462186606 2.1208242390939747 1 0 1
889 0 2 0 9.11251379226914 1.060452375477501 1.4454894419785866 2 0 1
890 0 1 0 9.45540143639527 1.8420567129748517 1.025612842918024 2 0 1
350 0 1 0 7.699173846511106 1.5578501091521715 2.7327338786123563 1 0 1
655 0 2 0 11.133426262580567 5.712338873467439 0.5808949019856455 1 1 1
657 0 1 0 10.585882893973334 5.528784812474156 1.4195929419353348 1 1 1
557 0 1 0 9.30192356978689 5.318421642936719 3.6270160667890448 1 1 1
693 0 1 0 12.09558399390897 3.0360409419480328 2.750526232013103 1 1 1
891 0 1 0 8.599962456611241 0.6190422192505629 0.7012391838343608 2 0 1
80 0 1 0 10.786549203143904 1.6247617953444888 4.059945934188806 1 0 1
556 0 2 0 9.332999812521305 5.8653145431445495 2.8652169794299356 1 1 1
1510 0 2 0 12.75969279773523 5.9229656924964775 4.183976939548033 1 0 1
558 0 1 0 8.426453109332694 6.130503947712709 2.8049770550934165 1 1 1
675 0 1 0 7.7031574555533 2.6037970255186584 8.237537977082237 1 1 1
465 0 1 0 11.232470875783727 3.287787823164127 7.718030755268449 1 1 1
165 0 1 0 7.988376748186134 0.566618937890246 6.453038220527419 1 0 1
673 0 2 0 7.46056355254758 3.2165578424793564 8.954909616304844 1 1 1
432 0 1 0 6.454182482113556 5.954412356637048 7.861737748967613 1 0 1
348 0 1 0 11.270301823077723 0.15142089216676738 8.153302121808254 1 0 1
1020 0 1 0 8.539581070007486 4.308123363911042 5.588827585781976 1 0 1
464 0 1 0 10.889189566869142 3.6193761776860227 6.20262276200442 1 1 1
163 0 2 0 8.222639635940883 1.5438502452248708 6.473313168666501 1 0 1
674 0 1 0 7.31627102796507 4.109199280754035 8.615643947796032 1 1 1
463 0 2 0 11.461334130013343 3.8831153691828377 6.957695752224362 1 1 1
164 0 1 0 8.96786349452919 1.7132752384217866 5.788065371668216 1 0 1
81 0 1 0 11.280348041984823 0.90616218234339 5.298268230349198 1 0 1
1018 0 2 0 8.985060939903477 4.020537632061949 4.788669399032784 1 0 1
660 0 1 0 6.8911663877001335 2.7263338661987158 6.049836128556736 1 1 1
79 0 2 0 10.473826955943286 0.9883143297321595 4.761030798401644 1 0 1