LAMMPS data file via write_data, version 4 Feb 2025, timestep = 50000, units = metal

11040 atoms
3 atom types

0 154.00799999999998 xlo xhi
0 148.2 ylo yhi
0 151.07609208607428 zlo zhi

Masses

1 12.01099999691024
2 1.007999999740698
3 15.99899999588435

Atoms # full

8020 0 1 0 8.750150466180584 14.914277536948635 54.09053987832939 1 0 0
7201 0 1 0 1.659614633227809 2.5969888172250424 54.19047866698643 1 0 0
7930 0 1 0 2.375832620070846 1.3562237299174735 54.31968749188864 1 0 0
7982 0 1 0 2.3201098331821437 3.83322302478355 54.07023804557396 1 0 0
7939 0 1 0 3.8226723786107044 1.3470948061390582 54.31285729098439 1 0 0
7991 0 1 0 3.7963992648439917 3.8094681224939753 54.16596633107648 1 0 0
7258 0 1 0 0.1888465180029434 0.12563808157235917 54.29233512973406 1 0 0
7260 0 1 0 0.20828768098126108 2.603905551617633 54.08743597192604 1 0 0
7938 0 1 0 4.526392041089954 0.05818280091045012 54.39285777032573 1 0 0
7949 0 1 0 5.966958043063609 0.09685123679546578 54.348751101755155 1 0 0
7959 0 1 0 8.111851538482748 1.2980346529832976 54.2788672724411 1 0 0
8002 0 1 0 6.708901967416372 3.7692925188819992 54.19488279786732 1 0 0
8011 0 1 0 8.107417868259917 3.803321658867472 54.17496680959815 1 0 0
7940 0 1 0 4.512241553630332 2.606634884242845 54.16543410832287 1 0 0
7941 0 1 0 5.97424236870932 2.520016494171075 54.24183424593232 1 0 0
7950 0 1 0 6.6502269600196176 1.3183030151357251 54.38660324368943 1 0 0
7960 0 1 0 8.776875022809572 2.5421935111848013 54.239762651557825 1 0 0
7961 0 1 0 10.19452091095962 2.572347753908217 54.41211991888959 1 0 0
7969 0 1 0 10.270504385845939 0.09395478869977363 54.568766700309574 1 0 0
7970 0 1 0 10.979177900215946 1.3843567797220921 54.53292206229835 1 0 0
7979 0 1 0 12.353032398346024 1.3088566834813498 54.65229924010766 1 0 0
8022 0 1 0 10.91191044908432 3.764931432914687 54.481664320500286 1 0 0
8031 0 1 0 12.321357554889966 3.757252475570254 54.61767727583543 1 0 0
7958 0 1 0 8.806934013861175 0.07814028280643849 54.575850080033774 1 0 0
7314 0 1 0 0.22619381970953403 7.5513497793815745 54.005474008309236 1 0 0
7995 0 1 0 3.8497824715363387 8.754092933254585 54.199154490304906 1 0 0
7263 0 1 0 1.6507655762116753 5.10286100158303 53.997318671327 1 0 0
7993 0 1 0 3.81395987322887 6.275689236373629 54.06817438288343 1 0 0
7986 0 1 0 2.4095133515946316 8.782816764481158 54.13022370804302 1 0 0
7265 0 1 0 1.6386425392602577 7.527574376945047 54.07019579787641 1 0 0
7984 0 1 0 2.3831258111126905 6.314501207737032 54.077018739051624 1 0 0
7312 0 1 0 0.18958344554174622 5.115221304264441 54.08480008711663 1 0 0
8013 0 1 0 8.146903448434037 6.260442115339632 54.2241416970579 1 0 0
8006 0 1 0 6.7041261048215866 8.707810885863799 54.38512321235137 1 0 0
7992 0 1 0 4.5470914591458245 5.051151646126652 54.04343167409679 1 0 0
8003 0 1 0 5.984346444993093 4.982588789022854 54.00090740974722 1 0 0
8004 0 1 0 6.712509853670554 6.238768399683308 54.0759114697299 1 0 0
8005 0 1 0 5.982127388392213 7.483326765049268 54.24824894043814 1 0 0
8015 0 1 0 8.116596361350796 8.757500797240908 54.358422545600845 1 0 0
7994 0 1 0 4.520636179160168 7.503822630503479 54.19037944217729 1 0 0
8014 0 1 0 8.843535728417343 7.511126063273345 54.316398885537296 1 0 0
8012 0 1 0 8.801825863663248 5.008239488808562 54.1892477015606 1 0 0
8023 0 1 0 10.2506737523226 5.029102798407483 54.429560258829895 1 0 0
8024 0 1 0 10.940564393010954 6.277435709684497 54.528520979535 1 0 0
8033 0 1 0 12.349577697760514 6.219552946547268 54.588855598202656 1 0 0
8025 0 1 0 10.268773795189547 7.510084807704734 54.31935798455046 1 0 0
8026 0 1 0 10.984780580194057 8.769576733120175 54.32750564495926 1 0 0
8035 0 1 0 12.357209876132991 8.767322225245897 54.3907712371409 1 0 0
7316 0 1 0 0.26630815378289924 10.037418305147517 54.14195300101865 1 0 0
7318 0 1 0 0.29327633479597226 12.4932481924863 54.12136491666437 1 0 0
7267 0 1 0 1.7164331345975061 10.05287449628017 54.155073690737716 1 0 0
7988 0 1 0 2.4221728847501725 11.212679621729347 54.224182857571904 1 0 0
7997 0 1 0 3.8607495289249427 11.2493577205497 54.33017020948091 1 0 0
7269 0 1 0 1.6732209597202432 12.512893733108996 54.158632029049855 1 0 0
7999 0 1 0 3.829656406643633 13.709851288765567 54.215080423104816 1 0 0
7990 0 1 0 2.413183195006857 13.780504801026906 54.11885024751301 1 0 0
7996 0 1 0 4.5594128965340985 9.991522678142687 54.27936874912455 1 0 0
7998 0 1 0 4.535723452807663 12.47430113307229 54.33436010664494 1 0 0
8007 0 1 0 6.028941829670235 9.989963814084858 54.38667487981642 1 0 0
8008 0 1 0 6.71728839208615 11.221201161956595 54.35306530957074 1 0 0
8009 0 1 0 5.95918244532572 12.449020668372563 54.37899398519504 1 0 0
8017 0 1 0 8.13170242239759 11.22525858339181 54.22960098880611 1 0 0
8010 0 1 0 6.676218762712186 13.715285941183394 54.323646777114206 1 0 0
8019 0 1 0 8.07892767911182 13.68551877312604 54.20040313702648 1 0 0
8030 0 1 0 10.934713642010644 13.69562800307626 54.24316657415194 1 0 0
8037 0 1 0 12.405045482751106 11.204474667916392 54.18173721976721 1 0 0
8018 0 1 0 8.856094019585996 12.429760047899249 54.1909615703128 1 0 0
8016 0 1 0 8.826500828741565 10.006387718876178 54.31059744224881 1 0 0
8027 0 1 0 10.249756745760068 10.010487138516229 54.328387719602794 1 0 0
8028 0 1 0 11.018000366717507 11.23494140119797 54.16259915132725 1 0 0
8029 0 1 0 10.249882652736638 12.453253251486988 54.1869045919796 1 0 0
8039 0 1 0 12.353869974160505 13.687976520569089 54.251104042383666 1 0 0
7372 0 1 0 0.272620845917309 17.446704035226418 53.894839513656315 1 0 0
7320 0 1 0 0.2181622168624062 14.971227863124907 53.981573697552754 1 0 0
7323 0 1 0 1.7228705377450317 17.43202074624794 54.00457302818073 1 0 0
7261 0 1 0 1.6718518939076665 14.980641298275472 53.95418713959562 1 0 0
8042 0 1 0 2.3912335526792283 16.198276871513556 54.0281163706138 1 0 0
8051 0 1 0 3.7766395514755016 16.186340492393093 54.195943394454595 1 0 0
8000 0 1 0 4.513874396329083 14.963329339759149 54.24471181326387 1 0 0
8052 0 1 0 4.565734291216331 17.44065430652135 54.26782555226784 1 0 0
8001 0 1 0 5.921612184411798 15.021456773953789 54.360201638963076 1 0 0
8062 0 1 0 6.674719735730302 16.18691149961907 54.33315129022005 1 0 0
8063 0 1 0 5.9442643935707045 17.40233636095052 54.27984022193007 1 0 0
8071 0 1 0 8.08697805710588 16.13010279507347 54.188269815022956 1 0 0
8021 0 1 0 10.206172403513712 14.917925680595935 54.023766712879876 1 0 0
8091 0 1 0 12.336101160818373 16.155301678214098 54.1150374500535 1 0 0
8082 0 1 0 10.91725749966157 16.201616870438528 54.06034727444519 1 0 0
8083 0 1 0 10.189348387190137 17.40396157888795 54.00205927658702 1 0 0
8072 0 1 0 8.80855284242803 17.401531101104222 54.13603601183952 1 0 0
7209 0 1 0 1.6552336081723587 0.09493796481522472 54.368230168754785 1 0 0
7325 0 1 0 1.6384474647234009 19.917140230895868 54.09933478580791 1 0 0
7327 0 1 0 1.5443969623438019 22.4101035207202 54.09101889476085 1 0 0
8044 0 1 0 2.3770080594794503 18.681803996830567 54.16033674634104 1 0 0
8046 0 1 0 2.2908113562934744 21.17879967110192 54.14959604305227 1 0 0
8053 0 1 0 3.7900465131984413 18.628763020622877 54.341591098019386 1 0 0
8055 0 1 0 3.699573675581244 21.154956623323187 54.20988961553285 1 0 0
7376 0 1 0 0.10213713298576169 22.38278702512141 53.93191214760055 1 0 0
7374 0 1 0 0.22152209175540505 19.92479205718567 53.969664084934 1 0 0
8064 0 1 0 6.638240967981795 18.6228723309852 54.28143661968217 1 0 0
8065 0 1 0 5.957044560771032 19.864572548744782 54.274775426068175 1 0 0
8066 0 1 0 6.5987325382196245 21.095833869741803 54.2061425406396 1 0 0
8073 0 1 0 8.10889101294498 18.67220032360502 54.17838203123722 1 0 0
8075 0 1 0 8.04491684862853 21.167444276265414 54.14517181767663 1 0 0
8054 0 1 0 4.4648098157836245 19.887639691475183 54.30011073473199 1 0 0
8056 0 1 0 4.456764287926991 22.34020136755317 54.13027933717401 1 0 0
8067 0 1 0 5.891269880020219 22.346513877539806 54.165034976602676 1 0 0
8074 0 1 0 8.721427043658005 19.907565580972914 54.03417891416073 1 0 0
8084 0 1 0 10.882502973214065 18.65097791386256 54.04163980217446 1 0 0
8085 0 1 0 10.204515067844113 19.921757871816972 53.999581927660856 1 0 0
8087 0 1 0 10.146742692604288 22.42578618192129 53.90541032555897 1 0 0
8076 0 1 0 8.718569389153455 22.463888051123828 54.057467047389245 1 0 0
8086 0 1 0 10.868831499353108 21.13857821635623 53.85511732378117 1 0 0
8093 0 1 0 12.328046117368512 18.663522992667943 54.00914696300852 1 0 0
8095 0 1 0 12.298698904914115 21.121588158277657 53.866197534420984 1 0 0
7321 0 1 0 1.5693824512896262 27.2770253006302 53.7402576258584 1 0 0
8050 0 1 0 2.283157672219019 26.072873866837053 53.969452730567184 1 0 0
8059 0 1 0 3.71018049653897 26.055866135343827 54.01957153162609 1 0 0
7329 0 1 0 1.5438106637290492 24.856544332020455 54.012910545268305 1 0 0
8048 0 1 0 2.2608658419248524 23.612702773586403 54.06275450435659 1 0 0
8057 0 1 0 3.7181093715899007 23.574599450907773 54.14287740103591 1 0 0
7380 0 1 0 0.12304670516338721 27.292898742201555 53.725932163172004 1 0 0
7378 0 1 0 0.09729056113170603 24.822670467870015 53.901476045201726 1 0 0
8060 0 1 0 4.441460438189851 27.271909028806537 53.85892148668246 1 0 0
8061 0 1 0 5.880295043522402 27.258837605572968 53.935420372627014 1 0 0
8077 0 1 0 8.026634461180267 23.672770147637763 54.0172868494945 1 0 0
8058 0 1 0 4.441084845357656 24.78849150075286 54.1388912490967 1 0 0
8068 0 1 0 6.559187195527541 23.604267570614113 54.08138614129425 1 0 0
8069 0 1 0 5.886456944002274 24.792933419259207 54.10969952694746 1 0 0
8070 0 1 0 6.573894428790694 26.01503355240059 53.982761994608325 1 0 0
8079 0 1 0 8.008111482267124 26.068035020682977 53.97351574393962 1 0 0
8081 0 1 0 10.157013035023413 27.290556514309344 53.94935075738429 1 0 0
8080 0 1 0 8.739010888611718 27.31049064483346 53.8692540854494 1 0 0
8097 0 1 0 12.267705993464297 23.591854317683687 53.819010793719244 1 0 0
8089 0 1 0 10.222235494997177 24.849358995933045 53.901715647028624 1 0 0
8090 0 1 0 10.898089226106483 26.075611016271946 53.86459763012665 1 0 0
8078 0 1 0 8.808666354417667 24.879689221774385 53.97779017729969 1 0 0
8099 0 1 0 12.334061967405782 26.105487072113956 53.98366166592227 1 0 0
8088 0 1 0 10.898160416805261 23.624816710744003 53.76441376787806 1 0 0
8104 0 1 0 2.335039493836575 31.023062104202403 53.64213823472421 1 0 0
7383 0 1 0 1.5936016492875678 29.816382010396413 53.72414622508496 1 0 0
8113 0 1 0 3.7413561755365903 31.00203750334698 53.694464959975 1 0 0
8102 0 1 0 2.295346533283693 28.550699851452777 53.8263525525516 1 0 0
8111 0 1 0 3.7325157816255077 28.49528863617723 53.810521394275156 1 0 0
7385 0 1 0 1.5949031421324371 32.24677796577966 53.478174202591546 1 0 0
7434 0 1 0 0.14684153169622374 32.271146873619585 53.40865911922428 1 0 0
7432 0 1 0 0.1556644141040639 29.809672569328846 53.628138282445455 1 0 0
8112 0 1 0 4.432411823755293 29.716931778962653 53.78857077428853 1 0 0
8123 0 1 0 5.860696645220093 29.696074713744366 53.775724315151265 1 0 0
8124 0 1 0 6.577998782221933 30.965479699127094 53.67045165790128 1 0 0
8133 0 1 0 7.967869037703292 30.93174083713829 53.562611245838504 1 0 0
8122 0 1 0 6.570195846416281 28.48507355396743 53.843654300941715 1 0 0
8131 0 1 0 7.979243786353961 28.544762581681276 53.77256377910605 1 0 0
8125 0 1 0 5.903961667374906 32.226096019747885 53.65302399051625 1 0 0
8114 0 1 0 4.463105980324663 32.21365733589189 53.65031632073809 1 0 0
8153 0 1 0 12.230707854573048 31.015295352467824 53.739628152550836 1 0 0
8132 0 1 0 8.705429692635732 29.719750498826762 53.74075888914975 1 0 0
8142 0 1 0 10.84577011371465 28.56034306130412 53.941048023518775 1 0 0
8143 0 1 0 10.133644551804583 29.753573280985975 53.76640280079874 1 0 0
8144 0 1 0 10.850229225195152 31.017903890240262 53.64354114059735 1 0 0
8151 0 1 0 12.319949458518225 28.563119820574364 53.98463022044696 1 0 0
8134 0 1 0 8.742451341962513 32.18759918968874 53.518734310097805 1 0 0
8145 0 1 0 10.137534976284398 32.19116726062028 53.54103800570698 1 0 0
8108 0 1 0 2.2885419071612776 35.89367319076066 53.34469213593063 1 0 0
8117 0 1 0 3.7271158411124494 35.90949547608232 53.227930309688304 1 0 0
7436 0 1 0 0.13105728531580152 34.74155096127619 53.2592174066517 1 0 0
7387 0 1 0 1.5243619838528726 34.671348261759135 53.42734159940606 1 0 0
8106 0 1 0 2.303851022487957 33.46781787655348 53.55947434642107 1 0 0
8115 0 1 0 3.704152500139922 33.46121535875493 53.524348689780616 1 0 0
8128 0 1 0 6.5887829526694635 35.87651863163654 53.25050222619436 1 0 0
8137 0 1 0 7.994951122305534 35.89430147763086 53.222643554795425 1 0 0
8135 0 1 0 8.026132197937065 33.46393250713984 53.33497507334191 1 0 0
8126 0 1 0 6.607324899377287 33.41855459955227 53.51416699304546 1 0 0
8116 0 1 0 4.413339511726764 34.710113282721245 53.37497126275582 1 0 0
8127 0 1 0 5.878817394696172 34.665361283298054 53.38389759133451 1 0 0
8155 0 1 0 12.27734255800741 33.42637866380757 53.4185231339502 1 0 0
8146 0 1 0 10.840828635147306 33.44744470494633 53.395328616862194 1 0 0
8157 0 1 0 12.27510444718111 35.9618859574194 53.074610946603045 1 0 0
8148 0 1 0 10.866321210837523 35.92531733619271 53.206613804988876 1 0 0
8136 0 1 0 8.7534387488823 34.69358943086482 53.268195951230126 1 0 0
8147 0 1 0 10.17830373739431 34.66195660566098 53.24188257125339 1 0 0
7552 0 1 0 0.18693156238041023 54.44114002928537 52.01680689363828 1 0 0
7500 0 1 0 0.24532526375548946 51.959447707068016 51.93247071017529 1 0 0
7440 0 1 0 0.13746589209813714 39.64307215108505 52.9703860517344 1 0 0
7381 0 1 0 1.658741041229059 39.6216876797009 52.98062951016385 1 0 0
8171 0 1 0 3.783544173034284 40.83612273062671 52.835453446492444 1 0 0
8162 0 1 0 2.3749671720207832 40.80526270387846 52.801153393723695 1 0 0
8118 0 1 0 4.464712295370339 37.11437441860965 53.11449767853051 1 0 0
8138 0 1 0 8.78802722888159 37.142642072838456 53.148988544854966 1 0 0
8119 0 1 0 3.7589109178947804 38.34917504568544 53.095611281216534 1 0 0
8110 0 1 0 2.287815328766045 38.37805822457953 53.12775802180097 1 0 0
8120 0 1 0 4.478377669055203 39.597211517553156 53.02696500045207 1 0 0
8182 0 1 0 6.628892912828773 40.88128276469521 52.866742604996624 1 0 0
8121 0 1 0 5.920110016579617 39.64090689604365 52.994076623868985 1 0 0
8200 0 1 0 8.829703665527301 52.01061808117119 52.502179207151535 1 0 0
8191 0 1 0 8.063474155866983 40.887513128125676 52.888669930690824 1 0 0
8271 0 1 0 12.305771685487386 53.211896828377505 53.04933543041619 1 0 0
8130 0 1 0 6.634461054967837 38.43089442082863 53.05558700541008 1 0 0
8139 0 1 0 8.048300984332116 38.409381512278905 52.979579812757905 1 0 0
8211 0 1 0 12.252904913113317 40.855761017982125 52.72460884099019 1 0 0
8140 0 1 0 8.790184062690148 39.644794870539066 52.94850920316796 1 0 0
8141 0 1 0 10.187104299775235 39.641933052068005 53.03788805793889 1 0 0
8149 0 1 0 10.205659665711293 37.18246219258955 53.11778016440695 1 0 0
8150 0 1 0 10.957233852177835 38.43710997658142 53.09521136180629 1 0 0
8202 0 1 0 10.85092741212218 40.87240714000493 52.847268939242795 1 0 0
8159 0 1 0 12.384499748774187 38.446410267796146 52.809910650226975 1 0 0
8262 0 1 0 10.947845858475358 53.236584891249706 52.84435357356991 1 0 0
8175 0 1 0 3.7956366578380907 45.729264442879476 52.08429025788326 1 0 0
7494 0 1 0 0.22416877875481908 44.54656081632273 52.25739321742543 1 0 0
8166 0 1 0 2.3873689767888804 45.73757845766134 52.050512470350576 1 0 0
7445 0 1 0 1.6421010237207028 44.51454925753495 52.16595375548351 1 0 0
7492 0 1 0 0.166584293326668 42.05117254672825 52.53100752780624 1 0 0
7443 0 1 0 1.6493566689876142 42.03363750097797 52.50770064873571 1 0 0
8164 0 1 0 2.32388261360931 43.255107594168614 52.491948591346684 1 0 0
8173 0 1 0 3.833772954836345 43.33744105977541 52.48242430850713 1 0 0
8174 0 1 0 4.494246487482511 44.57260031864587 52.34183888407815 1 0 0
8185 0 1 0 5.916955391234213 44.54218284782614 52.42271160077822 1 0 0
8186 0 1 0 6.5889190232588515 45.82344527412101 52.30977670316157 1 0 0
8195 0 1 0 8.013879501952967 45.792592463515376 52.37755417524176 1 0 0
8172 0 1 0 4.463959535595855 42.08414797554631 52.65026068831623 1 0 0
8184 0 1 0 6.610470424106746 43.30260265755844 52.50918854399408 1 0 0
8193 0 1 0 8.066828031523293 43.37394483911779 52.58389511147842 1 0 0
8183 0 1 0 5.886215283569045 42.08997419139002 52.62206874150539 1 0 0
8194 0 1 0 8.737108991158774 44.57049258527671 52.45230720054744 1 0 0
8206 0 1 0 10.877819646931139 45.827099350359966 52.67203072791312 1 0 0
8215 0 1 0 12.306013511786963 45.80100920328178 52.74987361917883 1 0 0
8213 0 1 0 12.279005046022796 43.294396053104 52.76449301528443 1 0 0
8203 0 1 0 10.179379908492797 42.124281639535084 52.789080000347546 1 0 0
8204 0 1 0 10.836357161295142 43.3121536807792 52.62970798864684 1 0 0
8205 0 1 0 10.143359313461593 44.589280933541936 52.499979125227064 1 0 0
8192 0 1 0 8.756511071262947 42.15706563481729 52.85414089195662 1 0 0
8177 0 1 0 3.859209233580694 48.257949380804334 51.97070924709006 1 0 0
8179 0 1 0 3.7785699168593467 50.75995440662389 52.14335139143306 1 0 0
7496 0 1 0 0.20070715186645177 47.04006414993489 51.97158473843937 1 0 0
7498 0 1 0 0.2346015694128876 49.49622850663928 51.93651832071283 1 0 0
7449 0 1 0 1.6738498676494247 49.46943180797749 51.93135561820131 1 0 0
8168 0 1 0 2.4213818492374557 48.24403981249669 52.04000080352486 1 0 0
8170 0 1 0 2.3645794609509583 50.69340376945874 51.93169187607621 1 0 0
7447 0 1 0 1.6459861478899165 47.04484926700846 51.98309164696081 1 0 0
8178 0 1 0 4.4917705895887465 49.51925067476057 52.133961029593664 1 0 0
8187 0 1 0 5.938598408891712 46.98174314515152 52.066818646936824 1 0 0
8176 0 1 0 4.539333565557163 47.01396235567932 51.985902573939704 1 0 0
8189 0 1 0 5.91128990117223 49.51670040859247 52.186608162759946 1 0 0
8197 0 1 0 8.026093169073494 48.26703817761828 52.32987656930491 1 0 0
8188 0 1 0 6.614505036267405 48.252149622499225 52.13656694348965 1 0 0
8199 0 1 0 8.118370071695251 50.784348987149926 52.40274975912378 1 0 0
8190 0 1 0 6.592684101391532 50.75639992779447 52.29488777038329 1 0 0
8209 0 1 0 10.21446432179221 49.51266082764774 52.66874295700912 1 0 0
8208 0 1 0 10.895018163830866 48.226409056715816 52.69589480414322 1 0 0
8210 0 1 0 10.919489889318388 50.74608140010514 52.8161085514991 1 0 0
8219 0 1 0 12.322797286683207 50.71229855350283 53.033275110012404 1 0 0
8217 0 1 0 12.35368528969609 48.20734862600264 52.841020683570704 1 0 0
8196 0 1 0 8.733416569040577 46.977637557399696 52.38049534662191 1 0 0
8207 0 1 0 10.164045872123578 47.0450595168927 52.493138086052625 1 0 0
8198 0 1 0 8.765445711159401 49.534571176114646 52.47976242911181 1 0 0
7503 0 1 0 1.627179882541759 54.35850138402082 52.12433889989237 1 0 0
7441 0 1 0 1.6764673146799431 51.94304052025063 51.93872363036133 1 0 0
8222 0 1 0 2.362278130944639 53.1879356896366 52.09705496617178 1 0 0
8231 0 1 0 3.7450549805656905 53.23696157763583 52.366558183498555 1 0 0
8251 0 1 0 8.001522120638004 53.19673435151925 52.485960247852994 1 0 0
8181 0 1 0 5.873253720713371 51.98142117302243 52.51312805999351 1 0 0
8232 0 1 0 4.457230968775746 54.46638829088517 52.494736641068535 1 0 0
8243 0 1 0 5.900661363520286 54.48448917758361 52.48486896625226 1 0 0
8180 0 1 0 4.470093590141657 51.974382397707295 52.49131815284565 1 0 0
8242 0 1 0 6.612327435187859 53.19908692691042 52.51288733497469 1 0 0
8252 0 1 0 8.741902733554523 54.48354730150619 52.62520867332074 1 0 0
8263 0 1 0 10.179763881728084 54.45353605444186 52.68670832344799 1 0 0
8201 0 1 0 10.21536155053537 52.00727866373918 52.680933798063435 1 0 0
7389 0 1 0 1.6128093750514838 37.175667753247794 53.243082580966465 1 0 0
8129 0 1 0 5.858199127523041 37.166073002116036 53.159969032666375 1 0 0
7438 0 1 0 0.1876055766676343 37.171151837287354 53.15105186691311 1 0 0
7554 0 1 0 0.231649223284449 56.95906847261703 52.11965322338939 1 0 0
7556 0 1 0 0.2552382850998643 59.396331419293944 52.25327345472776 1 0 0
7507 0 1 0 1.6259628233324448 59.40617901608713 52.293068313511526 1 0 0
8226 0 1 0 2.3846187400464323 58.137111290542265 52.298206762678056 1 0 0
7505 0 1 0 1.6532519936102925 56.91935474525503 52.246057211841915 1 0 0
7560 0 1 0 0.22818490735922928 64.36613473539175 52.21920087935338 1 0 0
7501 0 1 0 1.577333923231613 64.3724039063784 52.45032400894253 1 0 0
7558 0 1 0 0.1905460529133583 61.87443149808871 52.39094975349648 1 0 0
7509 0 1 0 1.652426700393209 61.86834560484122 52.509394465098055 1 0 0
8230 0 1 0 2.34427826053397 63.09596699324553 52.60683288585367 1 0 0
8237 0 1 0 3.7687110443019525 60.65066838898715 52.55351995277715 1 0 0
8228 0 1 0 2.3393000878325525 60.63991133442471 52.50137361780963 1 0 0
8239 0 1 0 3.725150457603829 63.18300654913401 52.72560510626611 1 0 0
7563 0 1 0 1.6088811793385949 66.84577550631649 52.4703180395745 1 0 0
7612 0 1 0 0.20303193142927237 66.8479041207476 52.202030799141504 1 0 0
8284 0 1 0 2.354663687584342 68.10809854867418 52.54772418133011 1 0 0
7614 0 1 0 0.19571921349869056 69.28985865225981 52.25439404733193 1 0 0
8282 0 1 0 2.3167257730582094 65.63104396539158 52.54904008203823 1 0 0
8235 0 1 0 3.81279433512759 58.13805998959348 52.31601456914317 1 0 0
8335 0 1 0 12.292981271824734 70.51997959433646 53.13103758222999 1 0 0
8233 0 1 0 3.7222515921884214 55.70403565571262 52.392141030738635 1 0 0
8264 0 1 0 10.88120092733233 55.72776575305165 52.77951834119777 1 0 0
8247 0 1 0 5.882435201399991 59.42574294377558 52.61782248680246 1 0 0
8245 0 1 0 5.90848890695898 56.92126402214184 52.37191701391266 1 0 0
8246 0 1 0 6.60178020238854 58.1626112247634 52.540536452777076 1 0 0
8255 0 1 0 8.017870587376935 58.17288866344117 52.63473025498266 1 0 0
8236 0 1 0 4.525010864166804 59.43853244029043 52.434221015169044 1 0 0
8234 0 1 0 4.46863618603827 56.91469495305927 52.35485169273821 1 0 0
8328 0 1 0 10.901182046485394 72.9731843689035 53.281425079768525 1 0 0
8224 0 1 0 2.287387303543293 55.6295150587082 52.25444835712613 1 0 0
8327 0 1 0 10.183204401101948 71.79031937240256 53.01851125757176 1 0 0
8265 0 1 0 10.189227757081872 56.977073358816924 52.670324596115975 1 0 0
8266 0 1 0 10.905037945093397 58.174288564329096 52.91576407826838 1 0 0
8254 0 1 0 8.76278562047657 56.93261327210096 52.56457701300547 1 0 0
8275 0 1 0 12.323074483853262 58.12072950803609 53.003137244184444 1 0 0
8256 0 1 0 8.743810098485207 59.38744768591362 52.85766838021831 1 0 0
8267 0 1 0 10.170170662528822 59.403363866655525 52.96272133640773 1 0 0
8248 0 1 0 6.556271426659466 60.67348643941222 52.92876283056014 1 0 0
8249 0 1 0 5.868651867812191 61.901114281732674 52.884173298072945 1 0 0
8250 0 1 0 6.565648819269513 63.152237227650964 52.997621517273394 1 0 0
8257 0 1 0 8.044130434159191 60.62631369132376 53.08925305423043 1 0 0
8238 0 1 0 4.409425061924572 61.89866363758857 52.7043568318891 1 0 0
8259 0 1 0 7.996731233237528 63.132634410081884 53.188165719247145 1 0 0
8241 0 1 0 5.839300378926142 64.38368651377273 52.86093180137814 1 0 0
8240 0 1 0 4.401664734856285 64.4099409268981 52.70170208823255 1 0 0
8277 0 1 0 12.300593119227921 60.63878440732022 53.18801671504556 1 0 0
8258 0 1 0 8.743542675451986 61.91164336978322 53.19686358528798 1 0 0
8268 0 1 0 10.871977945172276 60.64846817757053 53.12834938336743 1 0 0
8269 0 1 0 10.162982235338584 61.859343013780936 53.19121766057148 1 0 0
8270 0 1 0 10.878628224980787 63.112751703672735 53.20410287019143 1 0 0
8260 0 1 0 8.707205878248558 64.36008224434072 53.08826534694925 1 0 0
8261 0 1 0 10.108920355286665 64.40209348881956 53.22683588337651 1 0 0
8279 0 1 0 12.294845552044565 63.11764911498263 53.20932972689925 1 0 0
7565 0 1 0 1.6333637493071376 69.32001427377435 52.477401889599165 1 0 0
8291 0 1 0 3.7184737253218625 65.65084286741212 52.698030586277326 1 0 0
8293 0 1 0 3.753443417355113 68.08485306320912 52.64085353136737 1 0 0
8292 0 1 0 4.441402033915387 66.8812456188151 52.69570296871636 1 0 0
8302 0 1 0 6.643831868731548 65.60094469708682 52.77353875469894 1 0 0
8311 0 1 0 8.04996699694752 65.58496788691389 52.82806688441543 1 0 0
8303 0 1 0 5.912720206367707 66.85044357524164 52.614990288365966 1 0 0
8313 0 1 0 8.035659292914472 68.12463350503847 52.790995028490116 1 0 0
8304 0 1 0 6.592688444245515 68.1231166857232 52.6595250832065 1 0 0
8305 0 1 0 5.898875118507904 69.36023170828777 52.731728785006325 1 0 0
8294 0 1 0 4.448849978095681 69.39259440207915 52.595496127938844 1 0 0
8322 0 1 0 10.836776138250501 65.61704007052374 53.03266943090395 1 0 0
8331 0 1 0 12.33220248545528 65.5937232200937 53.12679450222251 1 0 0
8312 0 1 0 8.706475183904887 66.82947447161183 52.809132720832565 1 0 0
8323 0 1 0 10.160771213197723 66.87083379185391 52.94635669701457 1 0 0
8324 0 1 0 10.93647676852745 68.0645817618991 52.90547669164038 1 0 0
8333 0 1 0 12.314372713860129 68.0390459745214 53.121699288564486 1 0 0
8314 0 1 0 8.715082808776911 69.31148431838855 52.759590702686396 1 0 0
8325 0 1 0 10.161683209021074 69.27252094522363 52.759570590450714 1 0 0
7616 0 1 0 0.21713064332794257 71.75715984145323 52.39345696372287 1 0 0
7567 0 1 0 1.6675982852835673 71.80327424328674 52.437989145347295 1 0 0
8286 0 1 0 2.3638815071628696 70.55201075385925 52.497367548015774 1 0 0
8295 0 1 0 3.767858079596738 70.60914051697038 52.57713671355887 1 0 0
8297 0 1 0 3.77227301452147 73.06595490301785 52.50943410300409 1 0 0
8288 0 1 0 2.3761693293729955 73.04434690103545 52.425180631697586 1 0 0
8296 0 1 0 4.463891526277689 71.8644103924182 52.578665093844435 1 0 0
8317 0 1 0 8.049413492400925 73.05535157910879 52.935067593583284 1 0 0
8315 0 1 0 8.041516313592076 70.58248683263662 52.70804650637464 1 0 0
8306 0 1 0 6.577297522984937 70.60111191314185 52.708909213548885 1 0 0
8307 0 1 0 5.929816775860962 71.842010775408 52.571660809334794 1 0 0
8308 0 1 0 6.625259890834658 73.10848319579203 52.76452481432361 1 0 0
8316 0 1 0 8.719353681766416 71.80002597310802 52.89471240560806 1 0 0
8326 0 1 0 10.888912800606361 70.53307819288841 52.882687567768464 1 0 0
8337 0 1 0 12.35411747235829 73.00204057599275 53.3545106118126 1 0 0
8244 0 1 0 6.626749192014503 55.71184175566507 52.355354065375764 1 0 0
8253 0 1 0 8.03494783650288 55.72438235556309 52.45481018611386 1 0 0
8273 0 1 0 12.2726724265551 55.664197830274965 53.005575393013835 1 0 0
7618 0 1 0 0.22509615311937886 74.2635461537981 52.569342905854676 1 0 0
7569 0 1 0 1.650543097468628 74.27364953108346 52.520126427427016 1 0 0
7620 0 1 0 0.16199685085091126 76.74899174074777 52.977908496233006 1 0 0
8299 0 1 0 3.737084687131144 75.60440909395308 52.64857132495527 1 0 0
7561 0 1 0 1.5803962403952743 76.79574056281339 52.91339857866643 1 0 0
8290 0 1 0 2.32908014515063 75.5258171286543 52.64924451727051 1 0 0
8351 0 1 0 3.76645101605553 77.99786768601209 53.17174765752797 1 0 0
8342 0 1 0 2.322970861973044 77.99025125710449 53.05316195185614 1 0 0
8319 0 1 0 8.002539647765838 75.51386274406333 53.27546340873546 1 0 0
8301 0 1 0 5.903923107270203 76.7565530597814 53.126621497707205 1 0 0
8362 0 1 0 6.615584172256237 77.93733718847456 53.53597376193364 1 0 0
8371 0 1 0 8.025300039640053 77.94617698725055 53.66341696464082 1 0 0
8298 0 1 0 4.464588782143827 74.30608937474211 52.629901469327216 1 0 0
8318 0 1 0 8.781249000524006 74.29312235534988 53.11215356328985 1 0 0
8310 0 1 0 6.581979939555115 75.5277598848621 53.090940215927326 1 0 0
8300 0 1 0 4.521754842247203 76.85032793853517 52.880652922934914 1 0 0
8381 0 1 0 10.135334637918625 89.03440939685186 54.5715309553022 1 0 0
8330 0 1 0 10.847088004326409 75.45414319184815 53.619864547008376 1 0 0
8339 0 1 0 12.275976405509345 75.50081741709201 53.732719558151715 1 0 0
8391 0 1 0 12.273771323487235 77.89495957464395 53.9960839609287 1 0 0
8382 0 1 0 10.82655323318441 77.8956402588833 53.84980175301539 1 0 0
8320 0 1 0 8.686259667438598 76.74805566631149 53.51317672774836 1 0 0
8321 0 1 0 10.123402045140315 76.70023691703345 53.69171482691678 1 0 0
8442 0 1 0 10.87821872465834 90.24046028800353 54.7674432297924 1 0 0
8344 0 1 0 2.340806207320309 80.42773297518094 53.32218845818872 1 0 0
8353 0 1 0 3.7681508757055884 80.39653771690169 53.47617947717581 1 0 0
7623 0 1 0 1.6043216173433463 79.20025179948632 53.21050148941868 1 0 0
8346 0 1 0 2.344582875844604 82.86268229249634 53.38204743459333 1 0 0
7625 0 1 0 1.6221237899685417 81.66067765212648 53.288638173721445 1 0 0
8355 0 1 0 3.7438201275682643 82.87278899343326 53.392350729910966 1 0 0
7672 0 1 0 0.14854543019658464 79.16604558651673 53.10812899520693 1 0 0
7674 0 1 0 0.19838280589544466 81.62161474742399 53.331455716618436 1 0 0
8363 0 1 0 5.8841116740840524 79.18308433073105 53.629510368995284 1 0 0
8364 0 1 0 6.569628905695626 80.3806155202197 53.87801851678378 1 0 0
8373 0 1 0 8.02127994164924 80.41185961976615 53.9713343381668 1 0 0
8366 0 1 0 6.624383708054063 82.87302591931835 53.74967802075384 1 0 0
8375 0 1 0 7.995506910078845 82.84600776540731 53.90561893944094 1 0 0
8352 0 1 0 4.494839552444673 79.16373233128445 53.41933405381962 1 0 0
8365 0 1 0 5.8952747576401014 81.62048504515646 53.73795538816179 1 0 0
8354 0 1 0 4.51230638920051 81.64302883195766 53.47179272380397 1 0 0
8383 0 1 0 10.132336066771998 79.16993334012963 54.001995965020434 1 0 0
8384 0 1 0 10.831864983397272 80.39311685354345 54.115037270069834 1 0 0
8372 0 1 0 8.736798374621584 79.1988049779423 53.952184701950515 1 0 0
8393 0 1 0 12.256310366298246 80.35949900179841 54.13809616920557 1 0 0
8395 0 1 0 12.266394965045919 82.81083232548697 54.01275697620497 1 0 0
8385 0 1 0 10.132115857027227 81.63380279731328 53.98908037049614 1 0 0
8374 0 1 0 8.693284083851864 81.61143599829893 53.93365889632948 1 0 0
8386 0 1 0 10.794055241212716 82.89890523820918 54.018797467006166 1 0 0
7629 0 1 0 1.6229304632602677 86.60904527711065 53.619510774371676 1 0 0
8357 0 1 0 3.741131157333274 85.34531452087727 53.64407943797985 1 0 0
7627 0 1 0 1.6412112984727543 84.0869328358936 53.27999270103807 1 0 0
8348 0 1 0 2.327389850870381 85.38125700739893 53.42757178467216 1 0 0
8350 0 1 0 2.294578920660726 87.8219013788123 53.84170117540494 1 0 0