 DBCSR| CPU Multiplication driver                                           BLAS
 DBCSR| Multrec recursion limit                                              512
 DBCSR| Multiplication stack size                                           1000
 DBCSR| Maximum elements for images                                    UNLIMITED
 DBCSR| Multiplicative factor virtual images                                   1
 DBCSR| Use multiplication densification                                       T
 DBCSR| Multiplication size stacks                                             3
 DBCSR| Use memory pool for CPU allocation                                     F
 DBCSR| Number of 3D layers                                               SINGLE
 DBCSR| Use MPI memory allocation                                              F
 DBCSR| Use RMA algorithm                                                      F
 DBCSR| Use Communication thread                                               T
 DBCSR| Communication thread load                                             87
 DBCSR| MPI: My node id                                                        0
 DBCSR| MPI: Number of nodes                                                 128
 DBCSR| OMP: Current number of threads                                         1
 DBCSR| OMP: Max number of threads                                             1
 DBCSR| Split modifier for TAS multiplication algorithm                  1.0E+00


  **** **** ******  **  PROGRAM STARTED AT               2025-10-22 11:48:30.761
 ***** ** ***  *** **   PROGRAM STARTED ON                             nid004056
 **    ****   ******    PROGRAM STARTED BY                            xr223_ukcp
 ***** **    ** ** **   PROGRAM PROCESS ID                                151523
  **** **  *******  **  PROGRAM STARTED IN /mnt/lustre/a2fs-work3/work/e89/e89/x
                                           r223_ukcp/BINDING-ENERGY-DARREN/bindi
                                           ng-energy/2-leg/s+1.00/d+2.75

 CP2K| version string:                                          CP2K version 9.1
 CP2K| source code revision number:                                  git:d8d7100
 CP2K| cp2kflags: omp libint fftw3 libxc elpa parallel mpi3 scalapack plumed2 mk
 CP2K|            l
 CP2K| is freely available from                            https://www.cp2k.org/
 CP2K| Program compiled at                       Thu 08 Jun 2023 08:54:13 AM BST
 CP2K| Program compiled on                                                  ln03
 CP2K| Program compiled for                                              ARCHER2
 CP2K| Data directory path       /work/y07/shared/apps/core/cp2k/cp2k-9.1.0/data
 CP2K| Input file name                                              cp2k_sub.inp

 GLOBAL| Force Environment number                                              1
 GLOBAL| Basis set file name                                      GTH_BASIS_SETS
 GLOBAL| Potential file name                                           POTENTIAL
 GLOBAL| MM Potential file name                                     MM_POTENTIAL
 GLOBAL| Coordinate file name                                           init.pdb
 GLOBAL| Method name                                                        CP2K
 GLOBAL| Project name                                                    MAT-H2O
 GLOBAL| Run type                                                         ENERGY
 GLOBAL| FFT library                                                       FFTW3
 GLOBAL| Diagonalization library                                            ELPA
 GLOBAL| Minimum number of eigenvectors for ELPA usage                        16
 GLOBAL| Orthonormality check for eigenvectors                          DISABLED
 GLOBAL| Matrix multiplication library                                 ScaLAPACK
 GLOBAL| All-to-all communication in single precision                          F
 GLOBAL| FFTs using library dependent lengths                                  F
 GLOBAL| Grid backend                                                       AUTO
 GLOBAL| Global print level                                                  LOW
 GLOBAL| MPI I/O enabled                                                       T
 GLOBAL| Total number of message passing processes                           128
 GLOBAL| Number of threads for this process                                    1
 GLOBAL| This output is from process                                           0
 GLOBAL| Stack size for threads created by OpenMP (OMP_STACKSIZE)        default
 GLOBAL| CPU model name                          AMD EPYC 7742 64-Core Processor
 GLOBAL| CPUID                                                              1002

 MEMORY| system memory details [Kb]
 MEMORY|                        rank 0           min           max       average
 MEMORY| MemTotal            263266864     263266864     263266864     263266864
 MEMORY| MemFree             241480012     241480012     241480264     241480120
 MEMORY| Buffers                180288        180288        180288        180288
 MEMORY| Cached                1346092       1346088       1346112       1346100
 MEMORY| Slab                  3313812       3313812       3313812       3313812
 MEMORY| SReclaimable           955644        955644        955644        955644
 MEMORY| MemLikelyFree       243962036     243962032     243962308     243962152


 *******************************************************************************
 *******************************************************************************
 **                                                                           **
 **     #####                         ##              ##                      **
 **    ##   ##            ##          ##              ##                      **
 **   ##     ##                       ##            ######                    **
 **   ##     ##  ##   ##  ##   #####  ##  ##   ####   ##    #####    #####    **
 **   ##     ##  ##   ##  ##  ##      ## ##   ##      ##   ##   ##  ##   ##   **
 **   ##  ## ##  ##   ##  ##  ##      ####     ###    ##   ######   ######    **
 **    ##  ###   ##   ##  ##  ##      ## ##      ##   ##   ##       ##        **
 **     #######   #####   ##   #####  ##  ##  ####    ##    #####   ##        **
 **           ##                                                    ##        **
 **                                                                           **
 **                                                ... make the atoms dance   **
 **                                                                           **
 **            Copyright (C) by CP2K developers group (2000-2021)             **
 **                      J. Chem. Phys. 152, 194103 (2020)                    **
 **                                                                           **
 *******************************************************************************


 TOTAL NUMBERS AND MAXIMUM NUMBERS

  Total number of            - Atomic kinds:                                   3
                             - Atoms:                                         67
                             - Shell sets:                                    70
                             - Shells:                                       338
                             - Primitive Cartesian functions:                341
                             - Cartesian basis functions:                    938
                             - Spherical basis functions:                    872

  Maximum angular momentum of- Orbital basis functions:                        2
                             - Local part of the GTH pseudopotential:          2
                             - Non-local part of the GTH pseudopotential:      0


 SCF PARAMETERS         Density guess:                                   RESTART
                        --------------------------------------------------------
                        max_scf:                                              20
                        max_scf_history:                                       0
                        max_diis:                                              4
                        --------------------------------------------------------
                        eps_scf:                                        5.00E-07
                        eps_scf_history:                                0.00E+00
                        eps_diis:                                       1.00E-01
                        eps_eigval:                                     1.00E-05
                        --------------------------------------------------------
                        level_shift [a.u.]:                                 0.00
                        added MOs                                        20    0
                        --------------------------------------------------------
                        Mixing method:                            BROYDEN_MIXING
                                                charge density mixing in g-space
                        --------------------------------------------------------
                        Smear method:                                FERMI_DIRAC
                        Electronic temperature [K]:                        300.0
                        Electronic temperature [a.u.]:                  9.50E-04
                        Accuracy threshold:                             1.00E-10
                        --------------------------------------------------------
                        Outer loop SCF in use 
                        No variables optimised in outer loop
                        eps_scf                                         5.00E-07
                        max_scf                                               20
                        No outer loop optimization
                        step_size                                       5.00E-01

 Number of electrons:                                                        264
 Number of occupied orbitals:                                                132
 Number of molecular orbitals:                                               152

 Number of orbital functions:                                                872
 Number of independent orbital functions:                                    872

 Extrapolation method: initial_guess

 *** WARNING in qs_initial_guess.F:309 :: User requested to restart the    ***
 *** wavefunction from the file named: MAT-H2O-RESTART.wfn. This file does ***
 *** not exist. Please check the existence of the file or change properly  ***
 *** the value of the keyword WFN_RESTART_FILE_NAME. Calculation continues ***
 *** using ATOMIC GUESS.                                                   ***



 SCF WAVEFUNCTION OPTIMIZATION

  Step     Update method      Time    Convergence         Total energy    Change
  ------------------------------------------------------------------------------
     1 NoMix/Diag. 0.40E+00    0.6     0.95489884      -379.1131386868 -3.79E+02
     2 Broy./Diag. 0.40E+00    0.8     0.34760424      -370.0706220551  9.04E+00
     3 Broy./Diag. 0.40E+00    0.8     0.02221261      -378.7974517608 -8.73E+00
     4 Broy./Diag. 0.40E+00    0.8     0.00987693      -382.3578697635 -3.56E+00
     5 Broy./Diag. 0.40E+00    0.8     0.00329763      -382.5717469691 -2.14E-01
     6 Broy./Diag. 0.40E+00    0.8     0.00151998      -382.2554123925  3.16E-01
     7 Broy./Diag. 0.40E+00    0.8     0.00152519      -382.2023740790  5.30E-02
     8 Broy./Diag. 0.40E+00    0.8     0.00100154      -382.2028000022 -4.26E-04
     9 Broy./Diag. 0.40E+00    0.8     0.00100759      -382.1952143228  7.59E-03
    10 Broy./Diag. 0.40E+00    0.8     0.00026808      -382.1953692673 -1.55E-04
    11 Broy./Diag. 0.40E+00    0.8     0.00023310      -382.1941514660  1.22E-03
    12 Broy./Diag. 0.40E+00    0.8     0.00008201      -382.1947738661 -6.22E-04
    13 Broy./Diag. 0.40E+00    0.8     0.00010499      -382.1947819997 -8.13E-06
    14 Broy./Diag. 0.40E+00    0.8     0.00003226      -382.1942182821  5.64E-04
    15 Broy./Diag. 0.40E+00    0.8     0.00001039      -382.1939817905  2.36E-04
    16 Broy./Diag. 0.40E+00    0.8     0.00002741      -382.1940531762 -7.14E-05
    17 Broy./Diag. 0.40E+00    0.8     0.00000669      -382.1941990403 -1.46E-04
    18 Broy./Diag. 0.40E+00    0.8     0.00000156      -382.1942222998 -2.33E-05
    19 Broy./Diag. 0.40E+00    0.8     0.00000114      -382.1942342582 -1.20E-05
    20 Broy./Diag. 0.40E+00    0.8     0.00000045      -382.1942506951 -1.64E-05

  *** SCF run converged in    20 steps ***


  Electronic density on regular grids:       -264.0000000000        0.0000000000
  Core density on regular grids:              263.9999999998       -0.0000000002
  Total charge density on r-space grids:       -0.0000000002
  Total charge density g-space grids:          -0.0000000002

  Overlap energy of the core charge distribution:               0.00000793327650
  Self energy of the core charge distribution:               -897.78766230971098
  Core Hamiltonian energy:                                    278.71439023507543
  Hartree energy:                                             352.99622336402615
  Exchange-correlation energy:                               -115.93247227539037
  Dispersion energy:                                           -0.18473764237791
  Electronic entropic energy:                                  -0.00000000000000
  Fermi energy:                                                -0.07131316689913

  Total energy:                                              -382.19425069510112

  outer SCF iter =    1 RMS gradient =   0.45E-06 energy =       -382.1942506951
  outer SCF loop converged in   1 iterations or   20 steps


 ENERGY| Total FORCE_EVAL ( QS ) energy [a.u.]:             -382.194250695101118

 -------------------------------------------------------------------------------
 -                                                                             -
 -                                DBCSR STATISTICS                             -
 -                                                                             -
 -------------------------------------------------------------------------------
 COUNTER                                    TOTAL       BLAS       SMM       ACC
 flops     9 x    22 x    24               190080     100.0%      0.0%      0.0%
 flops    22 x     9 x    24               190080     100.0%      0.0%      0.0%
 flops     9 x     9 x    24               233280     100.0%      0.0%      0.0%
 flops    22 x    22 x    24               464640     100.0%      0.0%      0.0%
 flops     9 x    22 x    32              1013760     100.0%      0.0%      0.0%
 flops    22 x     9 x    32              1013760     100.0%      0.0%      0.0%
 flops     9 x     9 x    32              1244160     100.0%      0.0%      0.0%
 flops    22 x    22 x    32              2478080     100.0%      0.0%      0.0%
 flops     9 x    13 x    24              7188480     100.0%      0.0%      0.0%
 flops    13 x     9 x    24              7188480     100.0%      0.0%      0.0%
 flops    22 x    13 x    24              8785920     100.0%      0.0%      0.0%
 flops    13 x    22 x    24              8785920     100.0%      0.0%      0.0%
 flops     9 x    13 x    32             38338560     100.0%      0.0%      0.0%
 flops    13 x     9 x    32             38338560     100.0%      0.0%      0.0%
 flops    22 x    13 x    32             46858240     100.0%      0.0%      0.0%
 flops    13 x    22 x    32             46858240     100.0%      0.0%      0.0%
 flops    13 x    13 x    24            337459200     100.0%      0.0%      0.0%
 flops    13 x    13 x    32           1799782400     100.0%      0.0%      0.0%
 flops inhomo. stacks                           0       0.0%      0.0%      0.0%
 flops total                         2.346412E+09     100.0%      0.0%      0.0%
 flops max/rank                     30.667520E+06     100.0%      0.0%      0.0%
 matmuls inhomo. stacks                         0       0.0%      0.0%      0.0%
 matmuls total                             227800     100.0%      0.0%      0.0%
 number of processed stacks                 20500     100.0%      0.0%      0.0%
 average stack size                                    11.1       0.0       0.0
 marketing flops                     4.014828E+09
 -------------------------------------------------------------------------------
 # multiplications                             20
 max memory usage/rank             339.320832E+06
 # max total images/rank                        2
 # max 3D layers                                1
 # MPI messages exchanged                   74240
 MPI messages size (bytes):
  total size                       466.554880E+06
  min size                           0.000000E+00
  max size                          29.952000E+03
  average size                       6.284414E+03
 MPI breakdown and total messages size (bytes):
             size <=      128               51040                        0
       128 < size <=     8192                   0                        0
      8192 < size <=    32768               23200                466554880
     32768 < size <=   131072                   0                        0
    131072 < size <=  4194304                   0                        0
   4194304 < size <= 16777216                   0                        0
  16777216 < size                               0                        0
 -------------------------------------------------------------------------------

 *** WARNING in dbcsr_mm.F:294 :: Using a non-square number of MPI ranks ***
 *** might lead to poor performance. Used ranks: 128 Suggested: 121 256  ***

 -------------------------------------------------------------------------------
 -                                                                             -
 -                      DBCSR MESSAGE PASSING PERFORMANCE                      -
 -                                                                             -
 -------------------------------------------------------------------------------
 ROUTINE             CALLS      AVE VOLUME [Bytes]
 MP_Bcast               19                     12.
 MP_Allreduce          196                     13.
 MP_Alltoall           572                  51920.
 MP_ISend             1280                   3590.
 MP_IRecv             1280                   2683.
 -------------------------------------------------------------------------------

 -------------------------------------------------------------------------------
 -                                                                             -
 -                                GRID STATISTICS                              -
 -                                                                             -
 -------------------------------------------------------------------------------
 LP    KERNEL             BACKEND                              COUNT     PERCENT
 4     collocate ortho    REF                                 989394      46.72%
 4     integrate ortho    REF                                 942280      44.49%
 2     collocate ortho    REF                                  47649       2.25%
 2     integrate ortho    REF                                  45380       2.14%
 3     collocate ortho    REF                                  39186       1.85%
 3     integrate ortho    REF                                  37320       1.76%
 0     collocate general  REF                                   8576       0.40%
 1     collocate ortho    REF                                   2394       0.11%
 1     integrate ortho    REF                                   2280       0.11%
 0     collocate ortho    REF                                   1680       0.08%
 0     integrate ortho    REF                                   1600       0.08%
 -------------------------------------------------------------------------------

 MEMORY| Estimated peak process memory [MiB]                                 325

 -------------------------------------------------------------------------------
 -                                                                             -
 -                         MESSAGE PASSING PERFORMANCE                         -
 -                                                                             -
 -------------------------------------------------------------------------------

 ROUTINE             CALLS      AVE VOLUME [Bytes]
 MP_Group                5
 MP_Bcast              173                3757928.
 MP_Allreduce          595                   1653.
 MP_Sync                45
 MP_Alltoall           323                3352146.
 MP_SendRecv           240                 409600.
 MP_ISendRecv        15621                  24960.
 MP_Wait             17779
 MP_comm_split          20
 MP_ISend             1826                 366352.
 MP_IRecv             1826                 366473.
 MP_Recv                15                  69760.
 -------------------------------------------------------------------------------


 -------------------------------------------------------------------------------
 -                                                                             -
 -                           R E F E R E N C E S                               -
 -                                                                             -
 -------------------------------------------------------------------------------
 
 CP2K version 9.1, the CP2K developers group (2021).
 CP2K is freely available from https://www.cp2k.org/ .

 Kuehne,Thomas D.; Iannuzzi,Marcella; Del Ben,Mauro;
 Rybkin,Vladimir V.; Seewald,Patrick; Stein,Frederick; Laino,Teodoro;
 Khaliullin,Rustam Z.; Schuett,Ole; Schiffmann,Florian; Golze,Dorothea;
 Wilhelm,Jan; Chulkov,Sergey; Bani-Hashemian,Mohammad Hossein;
 Weber,Valery; Borstnik,Urban; Taillefumier,Mathieu;
 Jakobovits,Alice Shoshana; Lazzaro,Alfio; Pabst,Hans; Mueller,Tiziano;
 Schade,Robert; Guidon,Manuel; Andermatt,Samuel; Holmberg,Nico;
 Schenter,Gregory K.; Hehn,Anna; Bussy,Augustin; Belleflamme,Fabian;
 Tabacchi,Gloria; Gloess,Andreas; Lass,Michael; Bethune,Iain;
 Mundy,Christopher J.; Plessl,Christian; Watkins,Matt;
 VandeVondele,Joost; Krack,Matthias; Hutter,Juerg. 
 The Journal of Chemical Physics, 152 (19), (2020). 
 CP2K: An electronic structure and molecular dynamics software package -
 Quickstep: Efficient and accurate electronic structure calculations.
 https://doi.org/10.1063/5.0007045

 Goerigk, Lars; Hansen, Andreas; Bauer, Christoph; Ehrlich, Stephan;
 Najibi, Asim; Grimme, Stefan. , 19 (48), (2017). 
 A look at the density functional theory zoo with the advanced GMTKN55 database
 for general main group thermochemistry, kinetics and noncovalent interactions.
 https://doi.org/10.1039/C7CP04913G

 Schuett, Ole; Messmer, Peter; Hutter, Juerg; VandeVondele, Joost. 
 Electronic Structure Calculations on Graphics Processing Units, John
 Wiley & Sons, Ltd, 173-190 (2016). 
 GPU-Accelerated Sparse Matrix-Matrix Multiplication for
 Linear Scaling Density Functional Theory.
 https://doi.org/10.1002/9781118670712.ch8

 Borstnik, U; VandeVondele, J; Weber, V; Hutter, J. 
 PARALLEL COMPUTING, 40 (5-6), 47-58 (2014). 
 Sparse matrix multiplication: The distributed block-compressed sparse
 row library.
 https://doi.org/10.1016/j.parco.2014.03.012

 Hutter, J; Iannuzzi, M; Schiffmann, F; VandeVondele, J. 
 WIREs Comput Mol Sci., 4 (1), 15-25 (2014). 
 CP2K: atomistic simulations of condensed matter systems.
 https://doi.org/10.1002/wcms.1159

 Marek, A; Blum, V; Johanni, R; Havu, V; Lang, B; Auckenthaler, T;
 Heinecke, A; Bungartz, H; Lederer, H. 
 Journal of Physics: Condensed Matter, 26 (21), (2014). 
 The ELPA library: scalable parallel eigenvalue solutions for
 electronic structure
 theory and computational science.
 https://doi.org/10.1088/0953-8984/26/21/213201

 Grimme, S; Ehrlich, S; Goerigk, L. 
 JOURNAL OF COMPUTATIONAL CHEMISTRY, 32, 1456 (2011). 
 Effect of the damping function in dispersion corrected density functional theory.
 https://doi.org/10.1002/jcc.21759

 Grimme, S; Antony, J; Ehrlich, S; Krieg, H. 
 JOURNAL OF CHEMICAL PHYSICS, 132 (15), 154104 (2010). 
 A consistent and accurate ab initio parametrization of density
 functional dispersion correction (DFT-D) for the 94 elements H-Pu.
 https://doi.org/10.1063/1.3382344

 VandeVondele, J; Hutter, J. 
 JOURNAL OF CHEMICAL PHYSICS, 127 (11), 114105 (2007). 
 Gaussian basis sets for accurate calculations on molecular systems in
 gas and condensed phases.
 https://doi.org/10.1063/1.2770708

 Krack, M. 
 THEORETICAL CHEMISTRY ACCOUNTS, 114 (1-3), 145-152 (2005). 
 Pseudopotentials for H to Kr optimized for gradient-corrected
 exchange-correlation functionals.
 https://doi.org/10.1007/s00214-005-0655-y

 VandeVondele, J; Krack, M; Mohamed, F; Parrinello, M; Chassaing, T;
 Hutter, J. COMPUTER PHYSICS COMMUNICATIONS, 167 (2), 103-128 (2005). 
 QUICKSTEP: Fast and accurate density functional calculations using a
 mixed Gaussian and plane waves approach.
 https://doi.org/10.1016/j.cpc.2004.12.014

 Frigo, M; Johnson, SG. 
 PROCEEDINGS OF THE IEEE, 93 (2), 216-231 (2005). 
 The design and implementation of FFTW3.
 https://doi.org/10.1109/JPROC.2004.840301

 Hartwigsen, C; Goedecker, S; Hutter, J. 
 PHYSICAL REVIEW B, 58 (7), 3641-3662 (1998). 
 Relativistic separable dual-space Gaussian pseudopotentials from H to Rn.
 https://doi.org/10.1103/PhysRevB.58.3641

 Zhang, YK; Yang, WT. 
 PHYSICAL REVIEW LETTERS, 80 (4), 890-890 (1998). 
 Comment on Generalized gradient approximation made simple.
 https://doi.org/10.1103/PhysRevLett.80.890

 Lippert, G; Hutter, J; Parrinello, M. 
 MOLECULAR PHYSICS, 92 (3), 477-487 (1997). 
 A hybrid Gaussian and plane wave density functional scheme.
 https://doi.org/10.1080/002689797170220

 Perdew, JP; Burke, K; Ernzerhof, M. 
 PHYSICAL REVIEW LETTERS, 77 (18), 3865-3868 (1996). 
 Generalized gradient approximation made simple.
 https://doi.org/10.1103/PhysRevLett.77.3865

 Goedecker, S; Teter, M; Hutter, J. 
 PHYSICAL REVIEW B, 54 (3), 1703-1710 (1996). 
 Separable dual-space Gaussian pseudopotentials.
 https://doi.org/10.1103/PhysRevB.54.1703


 -------------------------------------------------------------------------------
 -                                                                             -
 -                                T I M I N G                                  -
 -                                                                             -
 -------------------------------------------------------------------------------
 SUBROUTINE                       CALLS  ASD         SELF TIME        TOTAL TIME
                                MAXIMUM       AVERAGE  MAXIMUM  AVERAGE  MAXIMUM
 CP2K                                 1  1.0    0.109    0.120   17.638   17.643
 qs_energies                          1  2.0    0.006    0.010   16.933   16.941
 scf_env_do_scf                       1  3.0    0.000    0.002   16.053   16.058
 scf_env_do_scf_inner_loop           20  4.0    0.009    0.011   16.052   16.058
 qs_ks_update_qs_env                 20  5.0    0.001    0.001    7.023    7.028
 rebuild_ks_matrix                   20  6.0    0.003    0.004    7.019    7.022
 qs_ks_build_kohn_sham_matrix        20  7.0    0.010    0.015    7.016    7.021
 rs_pw_transfer                     206  9.4    0.004    0.005    4.908    5.133
 qs_rho_update_rho                   21  5.0    0.000    0.001    4.957    4.961
 calculate_rho_elec                  21  6.0    0.019    0.021    4.957    4.961
 density_rs2pw                       21  7.0    0.004    0.005    3.731    4.004
 sum_up_and_integrate                20  8.0    0.021    0.029    3.682    3.687
 integrate_v_rspace                  20  9.0    0.001    0.002    3.660    3.672
 pw_transfer                        306  9.0    0.057    0.066    3.296    3.437
 fft_wrap_pw1pw2                    266 10.0    0.003    0.004    3.161    3.297
 potential_pw2rs                     20 10.0    0.002    0.003    3.282    3.296
 fft_wrap_pw1pw2_530                102 10.2    0.276    0.330    2.898    3.061
 fft3d_ps                           266 12.0    1.318    1.459    2.434    2.550
 qs_vxc_create                       20  8.0    0.003    0.005    2.308    2.383
 xc_vxc_pw_create                    20  9.0    0.060    0.076    2.304    2.380
 gspace_mixing                       19  5.0    0.018    0.021    2.207    2.209
 qs_scf_new_mos                      20  5.0    0.003    0.005    2.140    2.148
 eigensolver                         20  6.0    0.003    0.005    1.983    1.985
 rs_pw_transfer_RS2PW_530            22  8.9    0.991    1.142    1.635    1.858
 xc_rho_set_and_dset_create          20 10.0    0.036    0.056    1.587    1.811
 cp_fm_diag_elpa                     20  7.0    0.000    0.000    1.766    1.773
 cp_fm_redistribute_end              20  8.0    1.523    1.742    1.525    1.743
 cp_fm_diag_elpa_base                20  8.0    0.213    1.707    0.216    1.727
 rs_pw_transfer_PW2RS_530            20 12.0    1.054    1.107    1.639    1.690
 broyden_mixing                      19  6.0    1.603    1.632    1.636    1.650
 mp_waitany                        1826 11.4    1.238    1.638    1.238    1.638
 pw_nn_compose_r                    120 10.5    0.643    0.678    0.945    1.410
 grid_collocate_task_list            21  7.0    1.150    1.240    1.150    1.240
 xc_functional_eval                  20 11.0    0.000    0.001    0.993    1.209
 pbe_lda_eval                        20 12.0    0.992    1.209    0.992    1.209
 mp_alltoall_z22v                   266 14.0    0.839    1.135    0.839    1.135
 mp_sendrecv_dm2                    240 11.5    0.302    0.827    0.302    0.827
 mp_waitall_1                     18193 11.5    0.657    0.759    0.657    0.759
 yz_to_x                            126 12.5    0.101    0.144    0.499    0.698
 x_to_yz                            140 13.4    0.167    0.199    0.608    0.648
 mp_sum_d                           581  3.4    0.309    0.606    0.309    0.606
 init_scf_run                         1  3.0    0.002    0.003    0.576    0.580
 rs_pw_transfer_PW2RS_180            20 12.0    0.183    0.207    0.402    0.475
 scf_env_initial_rho_setup            1  4.0    0.003    0.005    0.398    0.400
 grid_integrate_task_list            20 10.0    0.271    0.367    0.271    0.367
 rs_pw_transfer_PW2RS_60             20 12.0    0.103    0.155    0.330    0.355
 rs_pw_transfer_RS2PW_180            21  9.0    0.159    0.177    0.321    0.355
 pw_poisson_solve                    20  8.0    0.138    0.147    0.351    0.354
 -------------------------------------------------------------------------------

 The number of warnings for this run is : 2
 
 -------------------------------------------------------------------------------
  **** **** ******  **  PROGRAM ENDED AT                 2025-10-22 11:48:53.895
 ***** ** ***  *** **   PROGRAM RAN ON                                 nid004056
 **    ****   ******    PROGRAM RAN BY                                xr223_ukcp
 ***** **    ** ** **   PROGRAM PROCESS ID                                151523
  **** **  *******  **  PROGRAM STOPPED IN /mnt/lustre/a2fs-work3/work/e89/e89/x
                                           r223_ukcp/BINDING-ENERGY-DARREN/bindi
                                           ng-energy/2-leg/s+1.00/d+2.75
 DBCSR| CPU Multiplication driver                                           BLAS
 DBCSR| Multrec recursion limit                                              512
 DBCSR| Multiplication stack size                                           1000
 DBCSR| Maximum elements for images                                    UNLIMITED
 DBCSR| Multiplicative factor virtual images                                   1
 DBCSR| Use multiplication densification                                       T
 DBCSR| Multiplication size stacks                                             3
 DBCSR| Use memory pool for CPU allocation                                     F
 DBCSR| Number of 3D layers                                               SINGLE
 DBCSR| Use MPI memory allocation                                              F
 DBCSR| Use RMA algorithm                                                      F
 DBCSR| Use Communication thread                                               T
 DBCSR| Communication thread load                                             87
 DBCSR| MPI: My node id                                                        0
 DBCSR| MPI: Number of nodes                                                 128
 DBCSR| OMP: Current number of threads                                         1
 DBCSR| OMP: Max number of threads                                             1
 DBCSR| Split modifier for TAS multiplication algorithm                  1.0E+00


  **** **** ******  **  PROGRAM STARTED AT               2025-10-22 11:49:30.428
 ***** ** ***  *** **   PROGRAM STARTED ON                             nid004858
 **    ****   ******    PROGRAM STARTED BY                            xr223_ukcp
 ***** **    ** ** **   PROGRAM PROCESS ID                                  7485
  **** **  *******  **  PROGRAM STARTED IN /mnt/lustre/a2fs-work3/work/e89/e89/x
                                           r223_ukcp/BINDING-ENERGY-DARREN/bindi
                                           ng-energy/2-leg/s+1.00/d+2.75

 CP2K| version string:                                          CP2K version 9.1
 CP2K| source code revision number:                                  git:d8d7100
 CP2K| cp2kflags: omp libint fftw3 libxc elpa parallel mpi3 scalapack plumed2 mk
 CP2K|            l
 CP2K| is freely available from                            https://www.cp2k.org/
 CP2K| Program compiled at                       Thu 08 Jun 2023 08:54:13 AM BST
 CP2K| Program compiled on                                                  ln03
 CP2K| Program compiled for                                              ARCHER2
 CP2K| Data directory path       /work/y07/shared/apps/core/cp2k/cp2k-9.1.0/data
 CP2K| Input file name                                              cp2k_sub.inp

 GLOBAL| Force Environment number                                              1
 GLOBAL| Basis set file name                                      GTH_BASIS_SETS
 GLOBAL| Potential file name                                           POTENTIAL
 GLOBAL| MM Potential file name                                     MM_POTENTIAL
 GLOBAL| Coordinate file name                                           init.pdb
 GLOBAL| Method name                                                        CP2K
 GLOBAL| Project name                                                    MAT-H2O
 GLOBAL| Run type                                                         ENERGY
 GLOBAL| FFT library                                                       FFTW3
 GLOBAL| Diagonalization library                                            ELPA
 GLOBAL| Minimum number of eigenvectors for ELPA usage                        16
 GLOBAL| Orthonormality check for eigenvectors                          DISABLED
 GLOBAL| Matrix multiplication library                                 ScaLAPACK
 GLOBAL| All-to-all communication in single precision                          F
 GLOBAL| FFTs using library dependent lengths                                  F
 GLOBAL| Grid backend                                                       AUTO
 GLOBAL| Global print level                                                  LOW
 GLOBAL| MPI I/O enabled                                                       T
 GLOBAL| Total number of message passing processes                           128
 GLOBAL| Number of threads for this process                                    1
 GLOBAL| This output is from process                                           0
 GLOBAL| Stack size for threads created by OpenMP (OMP_STACKSIZE)        default
 GLOBAL| CPU model name                          AMD EPYC 7742 64-Core Processor
 GLOBAL| CPUID                                                              1002

 MEMORY| system memory details [Kb]
 MEMORY|                        rank 0           min           max       average
 MEMORY| MemTotal            263266848     263266848     263266848     263266848
 MEMORY| MemFree             239765132     239765132     239765196     239765184
 MEMORY| Buffers                180284        180284        180284        180284
 MEMORY| Cached                1401780       1401780       1401780       1401780
 MEMORY| Slab                  4485308       4485308       4485372       4485316
 MEMORY| SReclaimable          1759548       1759548       1759548       1759548
 MEMORY| MemLikelyFree       243106744     243106744     243106808     243106796


 *******************************************************************************
 *******************************************************************************
 **                                                                           **
 **     #####                         ##              ##                      **
 **    ##   ##            ##          ##              ##                      **
 **   ##     ##                       ##            ######                    **
 **   ##     ##  ##   ##  ##   #####  ##  ##   ####   ##    #####    #####    **
 **   ##     ##  ##   ##  ##  ##      ## ##   ##      ##   ##   ##  ##   ##   **
 **   ##  ## ##  ##   ##  ##  ##      ####     ###    ##   ######   ######    **
 **    ##  ###   ##   ##  ##  ##      ## ##      ##   ##   ##       ##        **
 **     #######   #####   ##   #####  ##  ##  ####    ##    #####   ##        **
 **           ##                                                    ##        **
 **                                                                           **
 **                                                ... make the atoms dance   **
 **                                                                           **
 **            Copyright (C) by CP2K developers group (2000-2021)             **
 **                      J. Chem. Phys. 152, 194103 (2020)                    **
 **                                                                           **
 *******************************************************************************


 TOTAL NUMBERS AND MAXIMUM NUMBERS

  Total number of            - Atomic kinds:                                   3
                             - Atoms:                                         67
                             - Shell sets:                                    70
                             - Shells:                                       338
                             - Primitive Cartesian functions:                341
                             - Cartesian basis functions:                    938
                             - Spherical basis functions:                    872

  Maximum angular momentum of- Orbital basis functions:                        2
                             - Local part of the GTH pseudopotential:          2
                             - Non-local part of the GTH pseudopotential:      0


 SCF PARAMETERS         Density guess:                                   RESTART
                        --------------------------------------------------------
                        max_scf:                                              20
                        max_scf_history:                                       0
                        max_diis:                                              4
                        --------------------------------------------------------
                        eps_scf:                                        5.00E-07
                        eps_scf_history:                                0.00E+00
                        eps_diis:                                       1.00E-01
                        eps_eigval:                                     1.00E-05
                        --------------------------------------------------------
                        level_shift [a.u.]:                                 0.00
                        added MOs                                        20    0
                        --------------------------------------------------------
                        Mixing method:                            BROYDEN_MIXING
                                                charge density mixing in g-space
                        --------------------------------------------------------
                        Smear method:                                FERMI_DIRAC
                        Electronic temperature [K]:                        300.0
                        Electronic temperature [a.u.]:                  9.50E-04
                        Accuracy threshold:                             1.00E-10
                        --------------------------------------------------------
                        Outer loop SCF in use 
                        No variables optimised in outer loop
                        eps_scf                                         5.00E-07
                        max_scf                                               20
                        No outer loop optimization
                        step_size                                       5.00E-01

 Number of electrons:                                                        264
 Number of occupied orbitals:                                                132
 Number of molecular orbitals:                                               152

 Number of orbital functions:                                                872
 Number of independent orbital functions:                                    872

 Extrapolation method: initial_guess


 SCF WAVEFUNCTION OPTIMIZATION

  Step     Update method      Time    Convergence         Total energy    Change
  ------------------------------------------------------------------------------
     1 NoMix/Diag. 0.40E+00    0.5     0.00000077      -382.1942748983 -3.82E+02
     2 Broy./Diag. 0.40E+00    0.7     0.00000018      -382.1942849744 -1.01E-05

  *** SCF run converged in     2 steps ***


  Electronic density on regular grids:       -264.0000000000        0.0000000000
  Core density on regular grids:              263.9999999998       -0.0000000002
  Total charge density on r-space grids:       -0.0000000002
  Total charge density g-space grids:          -0.0000000002

  Overlap energy of the core charge distribution:               0.00000793327650
  Self energy of the core charge distribution:               -897.78766230971098
  Core Hamiltonian energy:                                    278.71436302718854
  Hartree energy:                                             352.99622397128888
  Exchange-correlation energy:                               -115.93247995407836
  Dispersion energy:                                           -0.18473764237791
  Electronic entropic energy:                                  -0.00000000000000
  Fermi energy:                                                -0.07131206573048

  Total energy:                                              -382.19428497441328

  outer SCF iter =    1 RMS gradient =   0.18E-06 energy =       -382.1942849744
  outer SCF loop converged in   1 iterations or    2 steps


 ENERGY| Total FORCE_EVAL ( QS ) energy [a.u.]:             -382.194284974413279

 -------------------------------------------------------------------------------
 -                                                                             -
 -                                DBCSR STATISTICS                             -
 -                                                                             -
 -------------------------------------------------------------------------------
 COUNTER                                    TOTAL       BLAS       SMM       ACC
 flops     9 x    24 x     9                15552     100.0%      0.0%      0.0%
 flops     9 x    24 x    22                19008     100.0%      0.0%      0.0%
 flops    22 x    24 x     9                19008     100.0%      0.0%      0.0%
 flops    22 x    24 x    22                23232     100.0%      0.0%      0.0%
 flops     9 x    22 x    24                28512     100.0%      0.0%      0.0%
 flops    22 x     9 x    24                28512     100.0%      0.0%      0.0%
 flops     9 x     9 x    24                34992     100.0%      0.0%      0.0%
 flops    22 x    22 x    24                69696     100.0%      0.0%      0.0%
 flops     9 x    32 x     9                82944     100.0%      0.0%      0.0%
 flops    22 x    32 x     9               101376     100.0%      0.0%      0.0%
 flops     9 x    32 x    22               101376     100.0%      0.0%      0.0%
 flops    22 x    32 x    22               123904     100.0%      0.0%      0.0%
 flops     9 x    22 x    32               152064     100.0%      0.0%      0.0%
 flops    22 x     9 x    32               152064     100.0%      0.0%      0.0%
 flops     9 x     9 x    32               186624     100.0%      0.0%      0.0%
 flops    22 x    22 x    32               371712     100.0%      0.0%      0.0%
 flops     9 x    24 x    13               718848     100.0%      0.0%      0.0%
 flops    13 x    24 x     9               718848     100.0%      0.0%      0.0%
 flops    13 x    24 x    22               878592     100.0%      0.0%      0.0%
 flops    22 x    24 x    13               878592     100.0%      0.0%      0.0%
 flops     9 x    13 x    24              1078272     100.0%      0.0%      0.0%
 flops    13 x     9 x    24              1078272     100.0%      0.0%      0.0%
 flops    22 x    13 x    24              1317888     100.0%      0.0%      0.0%
 flops    13 x    22 x    24              1317888     100.0%      0.0%      0.0%
 flops    13 x    32 x     9              3833856     100.0%      0.0%      0.0%
 flops     9 x    32 x    13              3833856     100.0%      0.0%      0.0%
 flops    22 x    32 x    13              4685824     100.0%      0.0%      0.0%
 flops    13 x    32 x    22              4685824     100.0%      0.0%      0.0%
 flops     9 x    13 x    32              5750784     100.0%      0.0%      0.0%
 flops    13 x     9 x    32              5750784     100.0%      0.0%      0.0%
 flops    22 x    13 x    32              7028736     100.0%      0.0%      0.0%
 flops    13 x    22 x    32              7028736     100.0%      0.0%      0.0%
 flops    13 x    24 x    13             33226752     100.0%      0.0%      0.0%
 flops    13 x    13 x    24             50618880     100.0%      0.0%      0.0%
 flops    13 x    32 x    13            177209344     100.0%      0.0%      0.0%
 flops    13 x    13 x    32            269967360     100.0%      0.0%      0.0%
 flops inhomo. stacks                           0       0.0%      0.0%      0.0%
 flops total                       583.118512E+06     100.0%      0.0%      0.0%
 flops max/rank                     11.129664E+06     100.0%      0.0%      0.0%
 matmuls inhomo. stacks                         0       0.0%      0.0%      0.0%
 matmuls total                              56615     100.0%      0.0%      0.0%
 number of processed stacks                  4120     100.0%      0.0%      0.0%
 average stack size                                    13.7       0.0       0.0
 marketing flops                   833.380864E+06
 -------------------------------------------------------------------------------
 # multiplications                              4
 max memory usage/rank             302.342144E+06
 # max total images/rank                        2
 # max 3D layers                                1
 # MPI messages exchanged                   14848
 MPI messages size (bytes):
  total size                       168.651776E+06
  min size                           0.000000E+00
  max size                          60.840000E+03
  average size                      11.358552E+03
 MPI breakdown and total messages size (bytes):
             size <=      128                8888                        0
       128 < size <=     8192                   0                        0
      8192 < size <=    32768                4040                 77405696
     32768 < size <=   131072                1920                 91246080
    131072 < size <=  4194304                   0                        0
   4194304 < size <= 16777216                   0                        0
  16777216 < size                               0                        0
 -------------------------------------------------------------------------------

 *** WARNING in dbcsr_mm.F:294 :: Using a non-square number of MPI ranks ***
 *** might lead to poor performance. Used ranks: 128 Suggested: 121 256  ***

 -------------------------------------------------------------------------------
 -                                                                             -
 -                      DBCSR MESSAGE PASSING PERFORMANCE                      -
 -                                                                             -
 -------------------------------------------------------------------------------
 ROUTINE             CALLS      AVE VOLUME [Bytes]
 MP_Bcast               37                     12.
 MP_Allreduce          113                     22.
 MP_Alltoall           105                  50711.
 MP_ISend              256                   6473.
 MP_IRecv              256                   5801.
 -------------------------------------------------------------------------------

 -------------------------------------------------------------------------------
 -                                                                             -
 -                                GRID STATISTICS                              -
 -                                                                             -
 -------------------------------------------------------------------------------
 LP    KERNEL             BACKEND                              COUNT     PERCENT
 4     collocate ortho    REF                                 141342      53.18%
 4     integrate ortho    REF                                  94228      35.45%
 0     collocate general  REF                                   8576       3.23%
 2     collocate ortho    REF                                   6807       2.56%
 3     collocate ortho    REF                                   5598       2.11%
 2     integrate ortho    REF                                   4538       1.71%
 3     integrate ortho    REF                                   3732       1.40%
 1     collocate ortho    REF                                    342       0.13%
 0     collocate ortho    REF                                    240       0.09%
 1     integrate ortho    REF                                    228       0.09%
 0     integrate ortho    REF                                    160       0.06%
 -------------------------------------------------------------------------------

 MEMORY| Estimated peak process memory [MiB]                                 291

 -------------------------------------------------------------------------------
 -                                                                             -
 -                         MESSAGE PASSING PERFORMANCE                         -
 -                                                                             -
 -------------------------------------------------------------------------------

 ROUTINE             CALLS      AVE VOLUME [Bytes]
 MP_Group                5
 MP_Bcast              282                2309090.
 MP_Allreduce          348                   2796.
 MP_Sync                11
 MP_Alltoall            53                2416564.
 MP_SendRecv            24                 409600.
 MP_ISendRecv         1905                  24960.
 MP_Wait              2191
 MP_comm_split           3
 MP_ISend              242                 380679.
 MP_IRecv              242                 381587.
 MP_Recv                15                  69760.
 -------------------------------------------------------------------------------


 -------------------------------------------------------------------------------
 -                                                                             -
 -                           R E F E R E N C E S                               -
 -                                                                             -
 -------------------------------------------------------------------------------
 
 CP2K version 9.1, the CP2K developers group (2021).
 CP2K is freely available from https://www.cp2k.org/ .

 Kuehne,Thomas D.; Iannuzzi,Marcella; Del Ben,Mauro;
 Rybkin,Vladimir V.; Seewald,Patrick; Stein,Frederick; Laino,Teodoro;
 Khaliullin,Rustam Z.; Schuett,Ole; Schiffmann,Florian; Golze,Dorothea;
 Wilhelm,Jan; Chulkov,Sergey; Bani-Hashemian,Mohammad Hossein;
 Weber,Valery; Borstnik,Urban; Taillefumier,Mathieu;
 Jakobovits,Alice Shoshana; Lazzaro,Alfio; Pabst,Hans; Mueller,Tiziano;
 Schade,Robert; Guidon,Manuel; Andermatt,Samuel; Holmberg,Nico;
 Schenter,Gregory K.; Hehn,Anna; Bussy,Augustin; Belleflamme,Fabian;
 Tabacchi,Gloria; Gloess,Andreas; Lass,Michael; Bethune,Iain;
 Mundy,Christopher J.; Plessl,Christian; Watkins,Matt;
 VandeVondele,Joost; Krack,Matthias; Hutter,Juerg. 
 The Journal of Chemical Physics, 152 (19), (2020). 
 CP2K: An electronic structure and molecular dynamics software package -
 Quickstep: Efficient and accurate electronic structure calculations.
 https://doi.org/10.1063/5.0007045

 Goerigk, Lars; Hansen, Andreas; Bauer, Christoph; Ehrlich, Stephan;
 Najibi, Asim; Grimme, Stefan. , 19 (48), (2017). 
 A look at the density functional theory zoo with the advanced GMTKN55 database
 for general main group thermochemistry, kinetics and noncovalent interactions.
 https://doi.org/10.1039/C7CP04913G

 Schuett, Ole; Messmer, Peter; Hutter, Juerg; VandeVondele, Joost. 
 Electronic Structure Calculations on Graphics Processing Units, John
 Wiley & Sons, Ltd, 173-190 (2016). 
 GPU-Accelerated Sparse Matrix-Matrix Multiplication for
 Linear Scaling Density Functional Theory.
 https://doi.org/10.1002/9781118670712.ch8

 Borstnik, U; VandeVondele, J; Weber, V; Hutter, J. 
 PARALLEL COMPUTING, 40 (5-6), 47-58 (2014). 
 Sparse matrix multiplication: The distributed block-compressed sparse
 row library.
 https://doi.org/10.1016/j.parco.2014.03.012

 Hutter, J; Iannuzzi, M; Schiffmann, F; VandeVondele, J. 
 WIREs Comput Mol Sci., 4 (1), 15-25 (2014). 
 CP2K: atomistic simulations of condensed matter systems.
 https://doi.org/10.1002/wcms.1159

 Marek, A; Blum, V; Johanni, R; Havu, V; Lang, B; Auckenthaler, T;
 Heinecke, A; Bungartz, H; Lederer, H. 
 Journal of Physics: Condensed Matter, 26 (21), (2014). 
 The ELPA library: scalable parallel eigenvalue solutions for
 electronic structure
 theory and computational science.
 https://doi.org/10.1088/0953-8984/26/21/213201

 Grimme, S; Ehrlich, S; Goerigk, L. 
 JOURNAL OF COMPUTATIONAL CHEMISTRY, 32, 1456 (2011). 
 Effect of the damping function in dispersion corrected density functional theory.
 https://doi.org/10.1002/jcc.21759

 Grimme, S; Antony, J; Ehrlich, S; Krieg, H. 
 JOURNAL OF CHEMICAL PHYSICS, 132 (15), 154104 (2010). 
 A consistent and accurate ab initio parametrization of density
 functional dispersion correction (DFT-D) for the 94 elements H-Pu.
 https://doi.org/10.1063/1.3382344

 VandeVondele, J; Hutter, J. 
 JOURNAL OF CHEMICAL PHYSICS, 127 (11), 114105 (2007). 
 Gaussian basis sets for accurate calculations on molecular systems in
 gas and condensed phases.
 https://doi.org/10.1063/1.2770708

 Krack, M. 
 THEORETICAL CHEMISTRY ACCOUNTS, 114 (1-3), 145-152 (2005). 
 Pseudopotentials for H to Kr optimized for gradient-corrected
 exchange-correlation functionals.
 https://doi.org/10.1007/s00214-005-0655-y

 VandeVondele, J; Krack, M; Mohamed, F; Parrinello, M; Chassaing, T;
 Hutter, J. COMPUTER PHYSICS COMMUNICATIONS, 167 (2), 103-128 (2005). 
 QUICKSTEP: Fast and accurate density functional calculations using a
 mixed Gaussian and plane waves approach.
 https://doi.org/10.1016/j.cpc.2004.12.014

 Frigo, M; Johnson, SG. 
 PROCEEDINGS OF THE IEEE, 93 (2), 216-231 (2005). 
 The design and implementation of FFTW3.
 https://doi.org/10.1109/JPROC.2004.840301

 Hartwigsen, C; Goedecker, S; Hutter, J. 
 PHYSICAL REVIEW B, 58 (7), 3641-3662 (1998). 
 Relativistic separable dual-space Gaussian pseudopotentials from H to Rn.
 https://doi.org/10.1103/PhysRevB.58.3641

 Zhang, YK; Yang, WT. 
 PHYSICAL REVIEW LETTERS, 80 (4), 890-890 (1998). 
 Comment on Generalized gradient approximation made simple.
 https://doi.org/10.1103/PhysRevLett.80.890

 Lippert, G; Hutter, J; Parrinello, M. 
 MOLECULAR PHYSICS, 92 (3), 477-487 (1997). 
 A hybrid Gaussian and plane wave density functional scheme.
 https://doi.org/10.1080/002689797170220

 Perdew, JP; Burke, K; Ernzerhof, M. 
 PHYSICAL REVIEW LETTERS, 77 (18), 3865-3868 (1996). 
 Generalized gradient approximation made simple.
 https://doi.org/10.1103/PhysRevLett.77.3865

 Goedecker, S; Teter, M; Hutter, J. 
 PHYSICAL REVIEW B, 54 (3), 1703-1710 (1996). 
 Separable dual-space Gaussian pseudopotentials.
 https://doi.org/10.1103/PhysRevB.54.1703


 -------------------------------------------------------------------------------
 -                                                                             -
 -                                T I M I N G                                  -
 -                                                                             -
 -------------------------------------------------------------------------------
 SUBROUTINE                       CALLS  ASD         SELF TIME        TOTAL TIME
                                MAXIMUM       AVERAGE  MAXIMUM  AVERAGE  MAXIMUM
 CP2K                                 1  1.0    0.112    0.122    4.050    4.055
 qs_energies                          1  2.0    0.005    0.010    3.121    3.129
 scf_env_do_scf                       1  3.0    0.000    0.002    1.520    1.525
 scf_env_do_scf_inner_loop            2  4.0    0.009    0.012    1.520    1.524
 init_scf_run                         1  3.0    0.002    0.003    1.297    1.300
 rs_pw_transfer                      26  9.1    0.001    0.001    0.767    0.799
 qs_rho_update_rho                    3  5.0    0.000    0.002    0.767    0.771
 calculate_rho_elec                   3  6.0    0.003    0.004    0.767    0.771
 cp_fm_cholesky_decompose             1  4.0    0.738    0.743    0.738    0.743
 qs_ks_update_qs_env                  2  5.0    0.000    0.000    0.739    0.743
 rebuild_ks_matrix                    2  6.0    0.002    0.003    0.737    0.739
 qs_ks_build_kohn_sham_matrix         2  7.0    0.005    0.009    0.735    0.738
 density_rs2pw                        3  7.0    0.002    0.003    0.590    0.624
 scf_env_initial_rho_setup            1  4.0    0.003    0.005    0.531    0.534
 pw_transfer                         36  8.8    0.006    0.008    0.428    0.450
 fft_wrap_pw1pw2                     32  9.8    0.001    0.002    0.413    0.434
 sum_up_and_integrate                 2  8.0    0.003    0.005    0.401    0.404
 integrate_v_rspace                   2  9.0    0.000    0.001    0.398    0.401
 fft_wrap_pw1pw2_530                 12 10.2    0.035    0.042    0.373    0.400
 rs_pw_transfer_RS2PW_530             4  8.5    0.163    0.195    0.365    0.398
 mp_waitany                         242 10.9    0.291    0.368    0.291    0.368
 potential_pw2rs                      2 10.0    0.000    0.000    0.357    0.360
 mp_bcast_i                          86  6.0    0.320    0.359    0.320    0.359
 parser_read_line                  9939  4.0    0.004    0.004    0.338    0.356
 parser_read_line_low                15  5.1    0.009    0.302    0.334    0.352
 broadcast_input_information         15  6.1    0.000    0.000    0.325    0.346
 fft3d_ps                            32 11.8    0.151    0.171    0.322    0.342
 qs_init_subsys                       1  2.0    0.008    0.014    0.333    0.340
 topology_control                     1  2.0    0.004    0.007    0.297    0.311
 qs_energies_init_hamiltonians        1  3.0    0.005    0.008    0.288    0.293
 coordinate_control                   1  3.0    0.000    0.001    0.278    0.286
 coordinate_control_READ_COORDI       1  4.0    0.002    0.005    0.277    0.286
 read_coordinate_pdb                  1  5.0    0.003    0.006    0.275    0.282
 qs_scf_new_mos                       2  5.0    0.001    0.002    0.250    0.254
 cp_fm_diag_elpa                      3  7.3    0.000    0.001    0.251    0.253
 qs_env_update_s_mstruct              1  4.0    0.000    0.001    0.217    0.236
 eigensolver                          2  6.0    0.000    0.002    0.233    0.234
 qs_vxc_create                        2  8.0    0.003    0.005    0.224    0.232
 xc_vxc_pw_create                     2  9.0    0.007    0.010    0.221    0.230
 calculate_rho_core                   1  5.0    0.007    0.012    0.190    0.209
 cp_fm_redistribute_end               3  8.3    0.180    0.206    0.180    0.207
 cp_fm_diag_elpa_base                 3  8.1    0.024    0.199    0.024    0.201
 calculate_first_density_matrix       1  5.0    0.003    0.005    0.194    0.197
 rs_pw_transfer_PW2RS_530             2 12.0    0.088    0.100    0.178    0.191
 qs_dispersion_pairpot_init           1  3.0    0.010    0.133    0.160    0.186
 grid_collocate_task_list             3  7.0    0.164    0.178    0.164    0.178
 mp_alltoall_z22v                    32 13.8    0.136    0.174    0.136    0.174
 xc_rho_set_and_dset_create           2 10.0    0.003    0.005    0.156    0.171
 qs_env_setup                         1  3.0    0.003    0.005    0.132    0.147
 pw_nn_compose_r                     12 10.5    0.064    0.070    0.097    0.144
 mp_bcast_dv                          6  7.7    0.137    0.141    0.137    0.141
 qs_env_rebuild_pw_env                2  3.5    0.002    0.003    0.123    0.136
 mp_waitall_1                      2397 11.4    0.098    0.134    0.098    0.134
 pw_env_rebuild                       1  5.0    0.007    0.009    0.119    0.132
 create_qs_kind_set                   1  2.0    0.000    0.001    0.110    0.124
 read_qs_kind                         3  3.0    0.044    0.050    0.109    0.124
 yz_to_x                             18 12.2    0.014    0.019    0.089    0.117
 xc_functional_eval                   2 11.0    0.000    0.000    0.098    0.111
 pbe_lda_eval                         2 12.0    0.098    0.111    0.098    0.111
 make_basis_lowdin                    1  6.0    0.003    0.004    0.101    0.103
 pw_grid_setup                        5  6.0    0.001    0.003    0.097    0.099
 pw_grid_setup_internal               5  7.0    0.007    0.009    0.096    0.099
 x_to_yz                             14 13.6    0.016    0.020    0.077    0.087
 mp_sendrecv_dm2                     24 11.5    0.032    0.085    0.032    0.085
 -------------------------------------------------------------------------------

 The number of warnings for this run is : 1
 
 -------------------------------------------------------------------------------
  **** **** ******  **  PROGRAM ENDED AT                 2025-10-22 11:49:42.045
 ***** ** ***  *** **   PROGRAM RAN ON                                 nid004858
 **    ****   ******    PROGRAM RAN BY                                xr223_ukcp
 ***** **    ** ** **   PROGRAM PROCESS ID                                  7485
  **** **  *******  **  PROGRAM STOPPED IN /mnt/lustre/a2fs-work3/work/e89/e89/x
                                           r223_ukcp/BINDING-ENERGY-DARREN/bindi
                                           ng-energy/2-leg/s+1.00/d+2.75
