(written by ASE)

10440 atoms
3 atom types

0.0      154.00799999999998  xlo xhi
0.0      148.19999999999999  ylo yhi
0.0      151.07609208607428  zlo zhi

Masses

     1      12.010999996910238 # C
     2      1.0079999997406979 # H
     3      15.998999995884349 # O

Atoms # full

     1   0   1   0.0      27.312368188368602      2.6279489054352294      54.485510040148803
     2   0   1   0.0      15.220701025562834     -8.4866481223318235      54.436610294997209
     3   0   1   0.0        27.2760639966057     -7.2924238524683158      54.882239662648615
     4   0   1   0.0      15.237015015078931     -6.0694537808677493      54.526240472735147
     5   0   1   0.0      27.334449315168104     -4.8275330414671522      54.728102953203845
     6   0   1   0.0      15.177589819335582     -3.5993707443120391      54.922864493897976
     7   0   1   0.0      27.295206587370419     -2.3930371757302678      54.703041861472002
     8   0   1   0.0      15.173988998031055     -1.1060635570801491       55.09824310554184
     9   0   1   0.0       27.37803841558592     0.10624494599865396      54.564870895903205
    10   0   1   0.0      15.152379987183888      1.3747314187897306      55.036664785930618
    11   0   1   0.0      16.687478830754653     -8.5257544747165621      54.513193518902398
    12   0   1   0.0      17.401195194456086     -7.2927204896818987      54.596743184740873
    13   0   1   0.0      16.608073744596503     -6.0494552390444252      54.635340002946393
    14   0   1   0.0      17.276444899198051      -4.792118469168833      54.778949552793414
    15   0   1   0.0       16.59644935537051     -3.6368963946858672      54.982557386922977
    16   0   1   0.0      17.316859099986381     -2.3932417859249799      55.057409307030866
    17   0   1   0.0      16.610046213728683     -1.1891189338770505      55.105167580992621
    18   0   1   0.0      17.315788643979403    0.023676429632798892      55.001337804420736
    19   0   1   0.0      16.574577191780428      1.3220619577861752      55.047792776699353
    20   0   1   0.0        17.3194186363048      2.5349009081702127      54.912563263382637
    21   0   1   0.0      18.772467721737179      2.5641013809832471      54.811391911333644
    22   0   1   0.0      19.518517813950826     -8.5846235536245636      54.755353951669427
    23   0   1   0.0      18.784138613326089     -7.3364957196660594      54.683505779928581
    24   0   1   0.0      19.459834310397206     -6.1066569448005712      54.713249077227587
    25   0   1   0.0      18.748001487058779     -4.8645795558104608      54.858578942432317
    26   0   1   0.0      19.448860769316678      -3.583299126890835      54.853603978464321
    27   0   1   0.0      18.721356680368373      -2.349338369391059      54.912613464291091
    28   0   1   0.0      19.475337883350878     -1.0902017528217693      54.826021338503352
    29   0   1   0.0      18.710562565317439     0.10383601407424817      54.838208548386255
    30   0   1   0.0      19.391997924461371      1.3274818622567108      54.706667464034744
    31   0   1   0.0      20.928829028671455     -8.5590726399007995      54.973389949799589
    32   0   1   0.0      21.581212256152646     -7.3118309412298901      54.945639252883261
    33   0   1   0.0      20.841048715982545     -6.1055167522753493      54.810826493094766
    34   0   1   0.0      21.572720329384641     -4.8352852740665044      54.863819786671996
    35   0   1   0.0      20.935683042949684     -3.5712446186618316      54.831894049492035
    36   0   1   0.0      21.672695324920689      -2.380309007415923      54.945916035870532
    37   0   1   0.0      20.925372160043864     -1.1384293066359448      54.882033365792964
    38   0   1   0.0      21.599956135933137     0.10257140272616858        54.7701752531691
    39   0   1   0.0      20.803497430310379      1.2955202618277517      54.605485942466942
    40   0   1   0.0      21.625577750107265      2.5732845345281761      54.534874887878452
    41   0   1   0.0      23.022151010776245      2.5914551610988767      54.530142113448534
    42   0   1   0.0      23.740258369384172     -8.5726916372149713      55.208351839878404
    43   0   1   0.0      22.981012374329858     -7.2827361502427843      55.032401945627662
    44   0   1   0.0      23.708603678566696      -6.077069062974978       54.85063181584443
    45   0   1   0.0      23.019872938932917     -4.8562399013920876      54.843396639224217
    46   0   1   0.0      23.756439231525601     -3.6024036089109228      54.807875214622733
    47   0   1   0.0      23.064736370052316     -2.3670173016062086      54.923837268273417
    48   0   1   0.0      23.783899265911852     -1.1397515646205003      54.827289524379083
    49   0   1   0.0      23.043064889292484     0.11843414822822208       54.73660853914722
    50   0   1   0.0      23.757981931258254      1.3238945198978702      54.663395350537023
    51   0   1   0.0      25.145995156760304     -8.5177168660760554      55.091183229382843
    52   0   1   0.0      25.824615726550054     -7.2974924169677422      54.971016387422331
    53   0   1   0.0      25.132707014832757     -6.0577825606472171       54.87763185633932
    54   0   1   0.0      25.868785036294796     -4.8063192575510056       54.79056425837782
    55   0   1   0.0       25.18841840319001     -3.5596728829327979      54.824722040348128
    56   0   1   0.0      25.940230626461517     -2.3644087041209931      54.803352877554147
    57   0   1   0.0      25.186463552716798     -1.1497656132803018      54.692109591716466
    58   0   1   0.0      25.949457839050599     0.11812772873065801      54.642879019380999
    59   0   1   0.0      25.214029526584195      1.2966010409118873      54.622043210934116
    60   0   1   0.0      25.888116444737978        2.56596886003372       54.59721625051511
    61   0   1   0.0      27.264952792799011      14.966178684376011      54.135550582463608
    62   0   1   0.0      15.201495152486888      3.7780263142288217      54.879005511669391
    63   0   1   0.0      27.335524596388311      5.0497879044512066      54.594773764792549
    64   0   1   0.0      15.243824642397701      6.2779878551372041      54.575191406341581
    65   0   1   0.0      27.284011885155962      7.5526781963553127      54.524575678020689
    66   0   1   0.0       15.22829668423741      8.7435331474599032      54.544701493799856
    67   0   1   0.0      27.315898658002904      10.011515358601972      54.411496393264592
    68   0   1   0.0      15.194365755646718      11.216896814422446      54.330043425192301
    69   0   1   0.0      27.348996806655485      12.525226709546283      54.312516538833279
    70   0   1   0.0      15.194370241378188      13.704301752500445      54.262858594271066
    71   0   1   0.0      16.607504494599905        3.76870686571811      54.877743756738781
    72   0   1   0.0      17.319205070734512      4.9712314760514724      54.632001043750051
    73   0   1   0.0      16.660187128712668      6.2463057742100139      54.493550142396586
    74   0   1   0.0      17.365626141972797      7.5106841493574539      54.549339675010167
    75   0   1   0.0      16.629668079292223       8.732440840103294      54.631237036238467
    76   0   1   0.0      17.357401053496343      9.9879133909531284      54.573250423858937
    77   0   1   0.0      16.639567733401599      11.237981809684506      54.459425029856263
    78   0   1   0.0      17.359789024275717        12.5032050059204      54.357253448905361
    79   0   1   0.0      16.618236047213852      13.751719645232704      54.206122350265382
    80   0   1   0.0      17.308667369052092      14.982313038125174      54.208168992683724
    81   0   1   0.0      18.761226175623708      14.970397333502618       54.17437482704959
    82   0   1   0.0      19.447717197636493      3.7990882180472725      54.585534292315657
    83   0   1   0.0      18.804897627076191      5.0208125646422515      54.631285585846328
    84   0   1   0.0       19.51490237211469      6.2382185463686479      54.571685473238837
    85   0   1   0.0      18.756023967843728      7.4668501917698764       54.62243820683716
    86   0   1   0.0      19.472439874691212      8.7313802058850225      54.645098071504997
    87   0   1   0.0      18.783994390175497        9.96592104147207      54.610780898204666
    88   0   1   0.0      19.472055941465701      11.266570496077826      54.447951868943846
    89   0   1   0.0      18.766446828731972      12.472276283622824       54.36839885339004
    90   0   1   0.0      19.405154851013943      13.707806413006786      54.320803569976952
    91   0   1   0.0      20.888828853072091      3.7539287290482881      54.476183649718365
    92   0   1   0.0      21.604090360064884      5.0493556323270692      54.463709532578456
    93   0   1   0.0       20.90558306743203      6.3219030277055204      54.598602372068662
    94   0   1   0.0      21.634299851777843      7.5428598461182013      54.711109413477899
    95   0   1   0.0      20.869752752581448      8.7512318206420634      54.599046099808632
    96   0   1   0.0      21.569761493923298      10.024822066931431      54.596300071656337
    97   0   1   0.0      20.873571378970556      11.298644189357082      54.487733846640019
    98   0   1   0.0      21.598525683939435      12.529929224540552      54.545974836711622
    99   0   1   0.0      20.840827409005019      13.770938405185454      54.507962037643097
   100   0   1   0.0      21.593532517513097      14.974397591774629      54.285193116543262
   101   0   1   0.0      23.050674732766346      14.951220629810921      54.292165138801174
   102   0   1   0.0      23.754644490271101      3.7932737009462607      54.516848369691431
   103   0   1   0.0      23.055978394563379      5.0683234156829773       54.51351708869246
   104   0   1   0.0      23.792491533910582      6.2764229522016892      54.719611273998716
   105   0   1   0.0      23.049219636982411      7.5152213596281996       54.75218317333826
   106   0   1   0.0      23.748527171576047      8.7545193646915358      54.807944079031174
   107   0   1   0.0      23.042394135065777      10.028140384949724      54.664478162568585
   108   0   1   0.0       23.74419865526751      11.241248215130794      54.621738873044741
   109   0   1   0.0      23.089196237703025      12.473151448227762      54.563957903470921
   110   0   1   0.0        23.7862201568534      13.738353293239699      54.487262964061159
   111   0   1   0.0       25.17083554672849       3.790440534139373       54.56784740083215
   112   0   1   0.0      25.923166782979049      5.0619231722013422      54.668495164143145
   113   0   1   0.0      25.239143416070277      6.3176089480026318      54.805435758791759
   114   0   1   0.0      25.896130791330879      7.5814351997727583       54.68742821782363
   115   0   1   0.0      25.153116936149939      8.8084205352413569       54.66466858313877
   116   0   1   0.0        25.8633956601984       10.03542524796662      54.482083904970239
   117   0   1   0.0      25.202707598491106      11.290789691939088        54.5623156372342
   118   0   1   0.0      25.934863165939561      12.514772360567665      54.523686539757186
   119   0   1   0.0      25.223299048454241      13.726212315916943      54.528634384940311
   120   0   1   0.0       25.84320220456112      14.970026075344583      54.310566590224241
   121   0   1   0.0      27.278088050527089      27.324648652047049       53.18820642043822
   122   0   1   0.0      15.177997029141784      16.208167936718617      54.105441511435949
   123   0   1   0.0      27.243866873556481      17.404000968646979      53.705336414750001
   124   0   1   0.0      15.160722382723749       18.71271007558823      54.135406610935021
   125   0   1   0.0      27.259128783655473      19.880672492609751      53.567964318663769
   126   0   1   0.0      15.133140396913328      21.157406687084823      53.963150986833242
   127   0   1   0.0       27.25037266661948      22.360087187522101      53.338661357441268
   128   0   1   0.0      15.160596678841113      23.566520720193321      53.796713920204525
   129   0   1   0.0      27.269559658792705      24.782861862768574      53.299214389586943
   130   0   1   0.0       15.10962599252324      26.126903343125637      53.786600303984052
   131   0   1   0.0      16.569693123218187      16.226083381175247      54.198627064688154
   132   0   1   0.0      17.301618101461656      17.474854881108477      54.140992040277439
   133   0   1   0.0      16.597949574952789      18.692479609049371      54.096811898243445
   134   0   1   0.0      17.243356082306779      19.900676605465641      53.861867715675672
   135   0   1   0.0      16.596678412035335      21.112776475573757      53.859599889988466
   136   0   1   0.0      17.279707525798695      22.328745903029407      53.689512572801831
   137   0   1   0.0       16.54981416946444      23.568455053201383      53.821060755151663
   138   0   1   0.0      17.242684659097531      24.829076971443214      53.642951417695578
   139   0   1   0.0      16.561293498340646      26.072973179231269        53.7311783667257
   140   0   1   0.0      17.251071093551744      27.326520649943248      53.614255125933731
   141   0   1   0.0      18.670527491200943      27.359714381704165      53.468872617278365
   142   0   1   0.0      19.478437606002153      16.205781890244754      54.238665520906892
   143   0   1   0.0      18.751590508370363      17.406547419600301      54.136438482837022
   144   0   1   0.0      19.441006371892954      18.618471001112816      53.921678388337916
   145   0   1   0.0      18.710025331887593      19.844771331723472      53.733468537439038
   146   0   1   0.0      19.415242427861436      21.074077316819761      53.631498342469975
   147   0   1   0.0      18.702602564627103       22.32114985171912      53.565057862791967
   148   0   1   0.0      19.396911830988508      23.608276334385415      53.433780353578037
   149   0   1   0.0       18.66674480302531      24.837105519500291      53.537809635327307
   150   0   1   0.0      19.353539325319328      26.071851605918987       53.34231440297804
   151   0   1   0.0      20.908460861451104       16.19885637854501      54.271252211616876
   152   0   1   0.0      21.560519160931914      17.427316028546681      53.952272517604328
   153   0   1   0.0      20.835064537987833      18.647408148986862      53.854184205915153
   154   0   1   0.0       21.51969601007087      19.925844795575582       53.77899576873007
   155   0   1   0.0      20.850890346528249      21.135924168256615      53.621123302294237
   156   0   1   0.0      21.529965364223521      22.399555436458161      53.527111624799147
   157   0   1   0.0      20.798409755991099      23.609501228903497       53.31587831610257
   158   0   1   0.0      21.547921309355687      24.844288505509418      53.246731539280177
   159   0   1   0.0      20.799353258090459      26.089510882846948      53.181633801618901
   160   0   1   0.0      21.527959488740443      27.337860943539983      53.246860321778613
   161   0   1   0.0      22.925484261540642      27.323147402591822      53.233776594151365
   162   0   1   0.0      23.729500213249345      16.196300223701574      54.092336056396626
   163   0   1   0.0      22.975007753161297      17.410098703705977       54.02718940524845
   164   0   1   0.0      23.681562269337459      18.687345040935064      53.807965871907996
   165   0   1   0.0       22.90932646774478      19.887933221975061      53.799028823053128
   166   0   1   0.0      23.667508511024906      21.156172050587667      53.699011533548749
   167   0   1   0.0      22.951272943950126      22.358120281478946      53.568725241928384
   168   0   1   0.0      23.684611166973866      23.622614042704413      53.498619167695352
   169   0   1   0.0      23.010766218269858      24.848057251753733      53.256183989909204
   170   0   1   0.0      23.750466137953858      26.075589533007719      53.200179046155185
   171   0   1   0.0      25.127766735696699      16.232895834782241      53.997799981284082
   172   0   1   0.0      25.812492913554365      17.428899744304609      53.805084926265309
   173   0   1   0.0      25.076642495622302      18.679998938229829      53.734990256381892
   174   0   1   0.0      25.833333617393471      19.883852394544277       53.56828959096309
   175   0   1   0.0      25.092035752489384      21.131487215920949      53.555507428572554
   176   0   1   0.0      25.820735169818036      22.371501425998265      53.383144469768233
   177   0   1   0.0      25.073186865216091      23.595059596968216      53.343462605884241
   178   0   1   0.0      25.824477971576883      24.792419043999946      53.244071518377389
   179   0   1   0.0      25.190021567175158      26.010593790651651      53.198976176866019
   180   0   1   0.0      25.866349526610431       27.29289474168101      53.194554953216851
   181   0   1   0.0      27.307979124742648      39.594134323680237      53.038627917283399
   182   0   1   0.0      15.145008155449018      28.552783099666637      53.814728614989981
   183   0   1   0.0      27.283784252311449      29.760769913016947      53.029683016859842
   184   0   1   0.0      15.123471090020001      31.045150776304283      53.628711970718882
   185   0   1   0.0      27.307281493525846      32.201148498367402      52.925021282082966
   186   0   1   0.0      15.131048901738113      33.539854883358707      53.338181597280574
   187   0   1   0.0      27.314416471757919      34.694456064638054      52.912497996195171
   188   0   1   0.0      15.138861180738187      35.917634910970996      53.054711333632099
   189   0   1   0.0      27.255020553672569      37.141384016972076      52.932397583549061
   190   0   1   0.0      15.144560063427519      38.423619990810764      52.724119042219989
   191   0   1   0.0      16.555764871572332      28.535677273944707      53.739348481117155
   192   0   1   0.0      17.312392679033209      29.772355658042848      53.627341791719878
   193   0   1   0.0      16.539565077885317      30.961243931414614      53.546334528559186
   194   0   1   0.0      17.265496976599838      32.227783071458703      53.364846885157768
   195   0   1   0.0      16.575891216841363      33.470610724789502      53.309128209454691
   196   0   1   0.0      17.257655528375167      34.702121445302332      53.212068123398758
   197   0   1   0.0      16.542347966197354      35.889385232819734      53.154487486508323
   198   0   1   0.0      17.258072086263141      37.168631800788567      53.067893012998532
   199   0   1   0.0      16.554920345738626      38.426025022278878      52.934775256215495
   200   0   1   0.0      17.297910316305039      39.640389647519996      52.898863304641097
   201   0   1   0.0      18.687571333315503      39.627423574245043      53.076522282209559
   202   0   1   0.0      19.401208640117687      28.565253231788304      53.406115427568324
   203   0   1   0.0      18.718414272907442      29.762580378468471      53.532008183123182
   204   0   1   0.0      19.396348494912363      31.019587878688679       53.45100369403351
   205   0   1   0.0      18.644961208232093      32.230600531659718      53.320770113043153
   206   0   1   0.0      19.393865575001261      33.448069040545022      53.314772089070743
   207   0   1   0.0      18.683081639676313      34.689325153269323      53.192226840539938
   208   0   1   0.0      19.408061858815714      35.894633803255715      53.139059220562437
   209   0   1   0.0      18.668478250234497      37.135895864982906      53.205542173564936
   210   0   1   0.0      19.420030184959685      38.433163241570625      53.216850870968784
   211   0   1   0.0       20.80845625316735      28.533044898961315      53.269095679963435
   212   0   1   0.0      21.518804836605121      29.784252197005365       53.20009412275023
   213   0   1   0.0      20.809915287531034      30.964787974528893      53.314393706517343
   214   0   1   0.0      21.527360629135885      32.189868371885417      53.240857964799133
   215   0   1   0.0      20.823336216404112      33.406339141822961      53.221532736541029
   216   0   1   0.0      21.556189562240359      34.644606808657748      53.220112099591802
   217   0   1   0.0      20.824921532985229      35.922148431962889      53.215536145494163
   218   0   1   0.0      21.528377826455525      37.142971882342103      53.245618005700848
   219   0   1   0.0      20.849724538158167       38.41554024435554        53.2216218792272
   220   0   1   0.0      21.569701164413605      39.654400124288152      53.187538362601607
   221   0   1   0.0      23.036239011202785      39.641570130337236      53.290380823627949
   222   0   1   0.0      23.661207326558806      28.540577818461141      53.207427277998129
   223   0   1   0.0       22.94955256873499      29.736461856069006      53.133464471926757
   224   0   1   0.0      23.715953880168609      31.009750981492591      53.155037827746099
   225   0   1   0.0      22.931984079829224      32.193749064089118      53.247699696088063
   226   0   1   0.0      23.733909858563408      33.393994650846473      53.204433641987443
   227   0   1   0.0      22.969593072824061      34.647606745071592      53.189699551526374
   228   0   1   0.0      23.699947915244881      35.926493567599373        53.1559234088854
   229   0   1   0.0      22.972147907673548      37.138714900956401      53.225657625914558
   230   0   1   0.0      23.709727519039337      38.376866163413467      53.280032643666836
   231   0   1   0.0      25.101041402312944      28.518072900188521       53.15918114779862
   232   0   1   0.0      25.849166349012172      29.727794239967203      53.074646963982431
   233   0   1   0.0        25.1190555432092      30.966816218088848      53.077747559447666
   234   0   1   0.0      25.850825442578731      32.228367503348444        52.9929660321733
   235   0   1   0.0      25.172439316453634      33.456855486092998      53.093510436181049
   236   0   1   0.0      25.894734527124811      34.682938398422799      53.077397881716387
   237   0   1   0.0      25.123618594545491      35.920715851750479      53.107817055776579
   238   0   1   0.0      25.817595795776725      37.144276014354972      53.073850035902481
   239   0   1   0.0      25.120250788700755      38.352291224530248       53.21254668132476
   240   0   1   0.0      25.837346833223148      39.614510806707024      53.117328778119955
   241   0   1   0.0      27.282858605250478      51.949815030061984      53.635643474108647
   242   0   1   0.0      15.229665707126731      40.877518544750245       52.68774666802031
   243   0   1   0.0      27.286632688881461      42.089716916261253      53.130040823059375
   244   0   1   0.0       15.15930350364199      43.340541282783576      52.776458993829031
   245   0   1   0.0      27.356435688493946      44.558583542341893      53.054249946512876
   246   0   1   0.0      15.175155304311158      45.720316319968433       52.90413567848254
   247   0   1   0.0      27.357526137374613      47.020440760863721      53.169355770210942
   248   0   1   0.0      15.175960089287313       48.24956508470779       52.85693934050208
   249   0   1   0.0      27.277553292082043      49.481397352607637      53.435101959451352
   250   0   1   0.0      15.127477444489067      50.705698977672391      53.280183505653504
   251   0   1   0.0      16.639959330927475      40.844837990239256      52.745243891385023
   252   0   1   0.0      17.330910802079817      42.100220129333664      52.744440911645505
   253   0   1   0.0      16.598321224410878      43.342270858276962      52.759552347486697
   254   0   1   0.0      17.333153830539317      44.553907461701876      52.809528082071935
   255   0   1   0.0      16.574891810417697       45.81576743869266      52.961601049664282
   256   0   1   0.0      17.281393388268118      47.042912309539965      52.933344083409388
   257   0   1   0.0      16.622315828439323      48.257889507670136      52.979207782709295
   258   0   1   0.0      17.256658202543218      49.482774614092072      53.246721334564967
   259   0   1   0.0         16.554221954589      50.693295967631578      53.433702096211725
   260   0   1   0.0      17.283113385698499      51.868501447520579      53.553080508984806
   261   0   1   0.0      18.706055693946301      51.925340187046977      53.530523648590432
   262   0   1   0.0      19.394585840781847      40.867399568460023      52.957838496045063
   263   0   1   0.0      18.737535472516157      42.122632650674994      52.819052247010355
   264   0   1   0.0      19.464415278426774      43.331966460325752      52.748510361534997
   265   0   1   0.0       18.74508468098902      44.588476076917878      52.778368061248436
   266   0   1   0.0      19.424155311524007      45.810209433466689      52.805835135414767
   267   0   1   0.0      18.699525569598936      47.061295905546892      52.972531435679059
   268   0   1   0.0      19.399915869906604      48.243505091064684      53.214779315775864
   269   0   1   0.0      18.705653072374631      49.503283347718813      53.412287914861381
   270   0   1   0.0      19.440681927192582      50.716796222534271      53.534267197746097
   271   0   1   0.0      20.814094445015044      40.851994776064181      53.125807709591932
   272   0   1   0.0      21.545246806657875      42.077082968339127      53.057910884572578
   273   0   1   0.0       20.88895571189309      43.316082435534028      52.827497269827219
   274   0   1   0.0      21.618387505004293      44.513727886493356      52.980792404053638
   275   0   1   0.0      20.911239066157101      45.782170174121269      52.900408895709568
   276   0   1   0.0      21.613917798284326       46.97788145484985      53.086847696158635
   277   0   1   0.0      20.833903061892393      48.207877768924895        53.2989213101147
   278   0   1   0.0       21.55875734888836      49.464258215344245      53.477413521272489
   279   0   1   0.0      20.889662666886736      50.677238484184436       53.50498237993687
   280   0   1   0.0      21.557944923600061      51.902170658457159      53.597159471899282
   281   0   1   0.0      22.981683686392781      51.883330697812127      53.461690220556655
   282   0   1   0.0      23.742629689398566      40.865282311856596      53.200650805229799
   283   0   1   0.0      22.990576441586231      42.069544476618752      53.112607825844975
   284   0   1   0.0      23.711858551193991       43.29685183075086      53.092347401665869
   285   0   1   0.0      23.033078509508357      44.536397654815389      53.143081190784862
   286   0   1   0.0      23.758199630492278       45.80368456496165      53.229096453796423
   287   0   1   0.0      23.016377905471625       46.98494832519922      53.248201520719448
   288   0   1   0.0      23.751783490521063      48.213987006347267      53.397556341922296
   289   0   1   0.0      23.017897518759437      49.424281239442863      53.418170646630337
   290   0   1   0.0      23.684751075738845      50.665847595943966      53.509618439613135
   291   0   1   0.0      25.173404503070529      40.888294476636602      53.128395029782062
   292   0   1   0.0      25.872547465439787      42.123700292659997      53.139445684346867
   293   0   1   0.0      25.130631374857629      43.377327915844369      53.115629018998831
   294   0   1   0.0      25.860370152724592      44.568542918429785      53.071738760852291
   295   0   1   0.0      25.234120543738509      45.793502840294629      53.126098020226948
   296   0   1   0.0      25.915278005371487      46.995335625618267      53.192499449274685
   297   0   1   0.0      25.168050717922256      48.219014678654524       53.41203116529249
   298   0   1   0.0      25.893143365214556      49.460494187302245      53.479690520115049
   299   0   1   0.0      25.111136002096483      50.753045583274528      53.453575427105264
   300   0   1   0.0      25.860836413418518       51.93675369692631      53.575496118206566
   301   0   1   0.0      27.239941172375723      64.268896397612323      54.239097756918419
   302   0   1   0.0      15.084876006145464      53.165193387442372      53.472080667154906
   303   0   1   0.0      27.259894917430671      54.422607965549297      53.850059667913563
   304   0   1   0.0      15.134349412630728      55.672107410433526      53.485988200153884
   305   0   1   0.0      27.244647756049098      56.927425771197655      53.810101534043348
   306   0   1   0.0      15.178448785155561      58.183345221763858      53.387909320528557
   307   0   1   0.0      27.243893796223123      59.366648912230751      53.851249914051202
   308   0   1   0.0      15.112517329785426      60.634453436888414      53.420634197139279
   309   0   1   0.0      27.235299794537671      61.848439127717107      54.005383498091689
   310   0   1   0.0      15.161760450553507      63.129814839977733      53.405939716762198
   311   0   1   0.0      16.532384687516345      53.133627319992208      53.544311035975099
   312   0   1   0.0      17.250013577500418      54.419237056488214      53.609314279667522
   313   0   1   0.0      16.615263685044994       55.64262910550876      53.563119960249395
   314   0   1   0.0      17.313140899323081      56.897075296354608      53.576599657301479
   315   0   1   0.0      16.606625250188287      58.153050536041036      53.602226151525308
   316   0   1   0.0      17.323093723959538      59.374452823176988      53.705177302561808
   317   0   1   0.0      16.585083248863242      60.617192175892406      53.512332566040747
   318   0   1   0.0      17.216904827367497      61.874126777755833      53.622777639055649
   319   0   1   0.0      16.558944599013085      63.129900619082434      53.640983642749795