LAMMPS data file via write_data, version 4 Feb 2025, timestep = 80000, units = metal

11640 atoms
3 atom types

0 154.77803999999998 xlo xhi
0 148.9352384310711 ylo yhi
0 151.07316997686289 zlo zhi

Masses

1 12.01099999691024
2 1.007999999740698
3 15.99899999588435

Atoms # full

4460 0 1 0 6.270277923699268 15.44839193245855 26.64766861899064 0 0 1
4699 0 1 0 9.192209944078906 15.414177432121935 26.38055688963395 0 0 1
4195 0 1 0 0.5853612742560392 0.48887387240784735 26.54822365623211 0 0 1
4697 0 1 0 6.9888063257308435 16.693368440430252 26.645907113582265 0 0 1
4196 0 1 0 1.99647303424149 0.5176403084180783 26.495675820263898 0 0 1
4200 0 1 0 2.0494350255856544 2.9993521582482296 26.685720548066275 0 0 1
4433 0 1 0 2.7013071054388282 1.7284068848356149 26.597630491971618 0 0 1
4199 0 1 0 0.5859585015934583 3.003131012330993 26.66069059310443 0 0 1
4436 0 1 0 6.30028365705978 0.569792085002337 26.290644991145246 0 0 1
4463 0 1 0 4.808482836622914 17.908613287309546 26.550977517520046 0 0 1
4673 0 1 0 7.020308244388203 1.795006765368732 26.38243547392122 0 0 1
4694 0 1 0 8.423250424745879 14.17998062350297 26.494586573133237 0 0 1
4435 0 1 0 4.880963636790288 0.5237171400303102 26.407820005954914 0 0 1
4434 0 1 0 4.172808782239678 1.7316206434277746 26.53286920746873 0 0 1
4439 0 1 0 4.843155555767242 3.0308499626470793 26.559418387644406 0 0 1
4440 0 1 0 6.301832087645055 3.0103488064694366 26.49957454822277 0 0 1
4698 0 1 0 8.444973850205269 16.662185394944874 26.498213995758967 0 0 1
4674 0 1 0 8.458046421633782 1.7518797492820743 26.41732572484977 0 0 1
4437 0 1 0 2.7438652838591233 4.216479832211703 26.685197281554622 0 0 1
4204 0 1 0 2.028300784788915 5.457689359929852 26.810203576731244 0 0 1
4441 0 1 0 2.7209523230203416 6.704980779286729 26.779123910578015 0 0 1
4687 0 1 0 9.172060456276846 7.976737223550068 26.402335756077633 0 0 1
4703 0 1 0 9.196178735879098 17.877291298728554 26.491218763220516 0 0 1
4203 0 1 0 0.6168071106860508 5.490386038390584 26.75214620509753 0 0 1
4207 0 1 0 0.5905448688189482 7.955107456741777 26.786559600103516 0 0 1
4208 0 1 0 2.0089421426372 7.932857736336997 26.747796884679342 0 0 1
4681 0 1 0 6.973204412905321 6.759985704121784 26.528790963854757 0 0 1
4677 0 1 0 7.019279741422553 4.244881786253479 26.548310533765992 0 0 1
4442 0 1 0 4.161709771137712 6.778155653971864 26.6585487975464 0 0 1
4438 0 1 0 4.130058779717957 4.311313649440295 26.57377451246221 0 0 1
4444 0 1 0 6.277702056700306 5.53731463198023 26.601105050022312 0 0 1
4443 0 1 0 4.853079932253212 5.520372528958474 26.610312732601425 0 0 1
4448 0 1 0 6.293483212756513 8.015504997521122 26.649834603327733 0 0 1
4447 0 1 0 4.85683048228933 8.00785831951253 26.695711871268273 0 0 1
4678 0 1 0 8.414195756453282 4.228577211577096 26.430094928886334 0 0 1
4682 0 1 0 8.402534071270003 6.715584030362109 26.37157358674156 0 0 1
4695 0 1 0 9.236449383766669 12.968393139404427 26.52856809180015 0 0 1
4212 0 1 0 2.0160544346495275 10.432208412914333 26.630616352679695 0 0 1
4211 0 1 0 0.5872416937577397 10.439174808250257 26.60537335139685 0 0 1
4449 0 1 0 2.6811103615933356 11.765537029337256 26.722911653710113 0 0 1
4691 0 1 0 9.180247357521445 10.456418040594071 26.518057253532383 0 0 1
4445 0 1 0 2.7101485091917112 9.200820523322793 26.63756237111601 0 0 1
4216 0 1 0 1.9940852244998433 12.987262784292502 26.722935157048934 0 0 1
4215 0 1 0 0.5615598624708639 12.942523187282893 26.600458960037344 0 0 1
4455 0 1 0 4.871241011794681 12.956289798781718 26.77978877311766 0 0 1
4685 0 1 0 7.070111226666224 9.220130351710903 26.5121302788966 0 0 1
4452 0 1 0 6.350588729130725 10.533765654072733 26.584685804101444 0 0 1
4451 0 1 0 4.881031209660772 10.499125669497989 26.63519174915853 0 0 1
4450 0 1 0 4.123210164925975 11.768256157746926 26.787292078353467 0 0 1
4446 0 1 0 4.114085595273501 9.248513335553152 26.65208268913075 0 0 1
4689 0 1 0 7.052186832150151 11.759685389092498 26.65960518766379 0 0 1
4456 0 1 0 6.333102243827735 12.985615189788234 26.69599901477055 0 0 1
4686 0 1 0 8.498763035623796 9.236370604515018 26.447603584501447 0 0 1
4690 0 1 0 8.516312861672166 11.701817272573088 26.6186046113016 0 0 1
4219 0 1 0 0.6052801794857224 15.404591155211925 26.52939343610411 0 0 1
4220 0 1 0 2.0052340728501736 15.471151013004393 26.602733351189894 0 0 1
4675 0 1 0 9.141189977917417 0.48600663416018347 26.401762091998716 0 0 1
4453 0 1 0 2.708477592369471 14.184400420838916 26.693445872918357 0 0 1
4679 0 1 0 9.161030363910548 2.9969810939267196 26.466238185509134 0 0 1
4457 0 1 0 2.675429460750823 16.688228978603632 26.67256083422134 0 0 1
4458 0 1 0 4.087874451851799 16.665707952386658 26.63923833219918 0 0 1
4693 0 1 0 7.005756978978645 14.225048305638818 26.638386507343174 0 0 1
4454 0 1 0 4.1389465481402015 14.236206635777323 26.72366559131152 0 0 1
4459 0 1 0 4.814367229735421 15.432548887664193 26.642726391735923 0 0 1
4464 0 1 0 6.265366219537324 17.941552421897732 26.653853146291794 0 0 1
4224 0 1 0 1.9581566935164056 17.889516640985068 26.54966640329258 0 0 1
4223 0 1 0 0.5422112447757943 17.888850905969697 26.605337821935553 0 0 1
4683 0 1 0 9.112562984066976 5.480968016702041 26.396155999157617 0 0 1
4715 0 1 0 9.171327775355083 25.30284461364926 26.581118674101116 0 0 1
4227 0 1 0 0.5449557036441527 20.372544433385347 26.416821116384053 0 0 1
4228 0 1 0 1.9531922793934395 20.346405637444676 26.388024831597843 0 0 1
4726 0 1 0 8.48388583653169 33.953431351295805 26.652371916077435 0 0 1
4461 0 1 0 2.6836152243097677 19.137737276711054 26.37581401072399 0 0 1
4486 0 1 0 4.190584801994195 33.95869419388787 26.58705249888687 0 0 1
4465 0 1 0 2.6744591783647262 21.594701489584505 26.38171401545693 0 0 1
4727 0 1 0 9.213836227029233 32.7523693640704 26.52935188667939 0 0 1
4701 0 1 0 7.011084714146304 19.189624743702538 26.685614622734267 0 0 1
4490 0 1 0 4.2175040903993795 36.468004152563665 26.757400190636837 0 0 1
4467 0 1 0 4.849815152989287 20.38082076552728 26.522320276874897 0 0 1
4468 0 1 0 6.284020611257595 20.41016669718833 26.589098654522616 0 0 1
4462 0 1 0 4.134937181157166 19.10787830248502 26.486407555849176 0 0 1
4488 0 1 0 6.330381508799883 32.753356863637784 26.485313632278846 0 0 1
4466 0 1 0 4.113175708818049 21.604227018955182 26.444582547746265 0 0 1
4705 0 1 0 7.004463324544593 21.62599259903812 26.548814453971058 0 0 1
4706 0 1 0 8.45680933678357 21.584902355458915 26.556153574041442 0 0 1
4702 0 1 0 8.452355182334792 19.147656751289848 26.606409335756542 0 0 1
4232 0 1 0 2.003565694684483 22.86359274364408 26.397547408386266 0 0 1
4469 0 1 0 2.729078980485338 24.113034739029683 26.25094679784858 0 0 1
4731 0 1 0 9.183007552994695 35.186473961680456 26.737657018271946 0 0 1
4231 0 1 0 0.536479667811657 22.865022185324925 26.403757904534608 0 0 1
4235 0 1 0 0.5568769156405958 25.305753086223586 26.121635813018877 0 0 1
4236 0 1 0 2.0313796127789336 25.35204465667344 26.176243703021676 0 0 1
4473 0 1 0 2.720569751830274 26.557510228121522 26.262804575345385 0 0 1
4711 0 1 0 9.164308976455057 22.851866758892733 26.493215856581546 0 0 1
4472 0 1 0 6.314148467531155 22.86660413860072 26.52315394551759 0 0 1
4471 0 1 0 4.844206981695986 22.80777653235682 26.52919191094862 0 0 1
4475 0 1 0 4.844959834831866 25.354999369672175 26.473903243061734 0 0 1
4470 0 1 0 4.17904909126011 24.073883094461877 26.38516243515865 0 0 1
4476 0 1 0 6.260755860213237 25.328869538378537 26.543397874890093 0 0 1
4709 0 1 0 6.981868648452485 24.12133027906776 26.544507014971057 0 0 1
4474 0 1 0 4.1381726053124 26.558613166699704 26.397550689535258 0 0 1
4713 0 1 0 7.0154037576648465 26.54452799025425 26.63551243050733 0 0 1
4714 0 1 0 8.442058090944492 26.498379321481366 26.656502390041847 0 0 1
4710 0 1 0 8.474482096087609 24.106923691686692 26.53851232449129 0 0 1
4477 0 1 0 2.757130402231306 29.005552119248204 26.35495324660935 0 0 1
4244 0 1 0 2.0305732663392937 30.28654131795786 26.303931628599813 0 0 1
4243 0 1 0 0.5458344314017526 30.26667085819733 26.276224970656 0 0 1
4707 0 1 0 9.179924640891409 20.368159867322472 26.63189162715597 0 0 1
4240 0 1 0 2.0276872972897366 27.77594783338861 26.25482257864493 0 0 1
4239 0 1 0 0.5586550192811182 27.817698689614428 26.193959590170106 0 0 1
4730 0 1 0 8.478077166024876 36.43415104557274 26.806247746602228 0 0 1
4481 0 1 0 2.758023538588713 31.513197318664236 26.39754250485513 0 0 1
4721 0 1 0 6.98376223519342 31.494594567835676 26.577358898850058 0 0 1
4482 0 1 0 4.141783325382044 31.490558752695783 26.423977311281085 0 0 1
4478 0 1 0 4.209556129982027 29.00365727963302 26.3677533719883 0 0 1
4484 0 1 0 6.292572591262176 30.232828091840624 26.494744707998684 0 0 1
4483 0 1 0 4.875101140006366 30.243951935741 26.41130774336202 0 0 1
4479 0 1 0 4.918032293101428 27.772344065629174 26.510875371967103 0 0 1
4480 0 1 0 6.3250934407792405 27.77329033913617 26.502405674139162 0 0 1
4717 0 1 0 7.010494385891718 28.980653159639566 26.633671989375394 0 0 1
4722 0 1 0 8.446012714306384 31.47651899309211 26.497744869575904 0 0 1
4718 0 1 0 8.444975444224145 29.018624509094327 26.54034128847089 0 0 1
4719 0 1 0 9.135591532955816 27.77078509702426 26.649577860389606 0 0 1
4247 0 1 0 0.5954521469105951 32.70738228744383 26.44365840231146 0 0 1
4485 0 1 0 2.76311001341644 33.97959528364233 26.582428304933963 0 0 1
4248 0 1 0 2.0501070467310933 32.779657103391465 26.458751237089675 0 0 1
4252 0 1 0 2.014667725874416 35.2285527714893 26.7652604798495 0 0 1
4251 0 1 0 0.5939449183892657 35.23307090108679 26.8461080421814 0 0 1
4492 0 1 0 6.3281879921941995 35.23244979293099 26.539607757809087 0 0 1
4491 0 1 0 4.908747701044548 35.20788352949927 26.56758814857751 0 0 1
4725 0 1 0 7.032249352546533 33.97397257588612 26.44247882004681 0 0 1
4487 0 1 0 4.878757147691055 32.71807850064316 26.546930186343054 0 0 1
4723 0 1 0 9.151822708967877 30.26596030809391 26.546528105128964 0 0 1
4489 0 1 0 2.7595953293862876 36.43615114081644 26.79567401976142 0 0 1
4729 0 1 0 7.068761931599043 36.45734322699254 26.81546186284124 0 0 1
4735 0 1 0 9.1954114584606 37.685877993717874 26.862801667361893 0 0 1
4255 0 1 0 0.6543347222957925 37.72538125334839 26.944357704503158 0 0 1
4754 0 1 0 8.493380831600058 51.44781658918332 26.631683941155362 0 0 1
4493 0 1 0 2.7681431234444145 38.97131403794305 26.944049833425257 0 0 1
4757 0 1 0 7.040957487962508 53.900819534352216 26.687316079372977 0 0 1
4256 0 1 0 2.055580976798756 37.69640835096769 26.910701407155862 0 0 1
4260 0 1 0 2.027955883567508 40.23003923750958 27.091127136686005 0 0 1
4259 0 1 0 0.6079084212780448 40.23293618267613 27.04504489914482 0 0 1
4733 0 1 0 7.068882563286165 38.95793880394306 26.84116089338289 0 0 1
4496 0 1 0 6.3598642378402195 37.70717235616915 26.855455624237905 0 0 1
4519 0 1 0 4.878213881409542 52.68169512246042 26.562858910855155 0 0 1
4495 0 1 0 4.912812468460776 37.724917214926975 26.833794016137148 0 0 1
4520 0 1 0 6.284653714028976 52.69032716697278 26.599146772389602 0 0 1
4494 0 1 0 4.213303841920892 38.98837515058765 26.84947901199674 0 0 1
4500 0 1 0 6.3590360815812845 40.18066555630583 26.75558175663498 0 0 1
4499 0 1 0 4.905084355877526 40.18938145965984 26.76916972815038 0 0 1
4758 0 1 0 8.474883969188957 53.88665089984363 26.727411270217104 0 0 1
4734 0 1 0 8.466657095807014 38.97538063265947 26.928633933698986 0 0 1
4747 0 1 0 9.178228562893338 45.228138673717176 26.75866620627877 0 0 1
4263 0 1 0 0.5749671523044267 42.71410059523628 26.880899301259433 0 0 1
4743 0 1 0 9.197742205145603 42.71002977069905 26.743564119653392 0 0 1
4501 0 1 0 2.737665222087401 43.91891615759523 26.81944679055263 0 0 1
4264 0 1 0 2.0080431580669313 42.72794346371257 26.874789164327083 0 0 1
4497 0 1 0 2.7429827306146315 41.45822664463979 26.90682122400259 0 0 1
4267 0 1 0 0.5725497798429767 45.149525999832186 26.8703166896995 0 0 1
4268 0 1 0 2.023166625252721 45.19581220010763 26.72674492291866 0 0 1
4741 0 1 0 7.0520807110230574 43.96752309722695 26.78446035093039 0 0 1
4504 0 1 0 6.302008888938015 42.711582974810206 26.745885785913327 0 0 1
4503 0 1 0 4.885443611930234 42.7315099674395 26.811469737710873 0 0 1
4502 0 1 0 4.161882587246822 43.96416000372203 26.841087829057937 0 0 1
4498 0 1 0 4.15597894946401 41.451726490073305 26.78666933336098 0 0 1
4737 0 1 0 7.010332314395318 41.45597392384694 26.773672673333557 0 0 1
4508 0 1 0 6.312887458526438 45.19461933862593 26.801531304461726 0 0 1
4507 0 1 0 4.886208687950316 45.191417215616006 26.780312530178307 0 0 1
4742 0 1 0 8.486305950920192 43.97381864424959 26.759559857145327 0 0 1
4738 0 1 0 8.463399254944699 41.46076403314168 26.80947629416759 0 0 1
4509 0 1 0 2.7546624039856904 48.90968122658402 26.524724784432284 0 0 1
4271 0 1 0 0.6074072318198837 47.692303524391434 26.725381164939552 0 0 1
4763 0 1 0 9.17249185699406 55.123933074220005 26.821903430613144 0 0 1
4272 0 1 0 2.033292637288707 47.66204219454593 26.719103090930066 0 0 1
4505 0 1 0 2.7345553674113905 46.428431259242515 26.747327613452114 0 0 1
4739 0 1 0 9.186945982683927 40.2108590454705 26.83780528879485 0 0 1
4276 0 1 0 1.9904980783521642 50.12657649161437 26.47388556590558 0 0 1
4275 0 1 0 0.5833209923264386 50.150765349258606 26.48036436217536 0 0 1
4515 0 1 0 4.883505944781472 50.12533502397969 26.48244314028881 0 0 1
4512 0 1 0 6.32806189617767 47.669469897396766 26.643085773401086 0 0 1
4511 0 1 0 4.926011772581469 47.65365091055624 26.629056140809816 0 0 1
4506 0 1 0 4.1477730117962155 46.40665409622714 26.724752244141296 0 0 1
4745 0 1 0 7.05372434246039 46.42400650021992 26.701973631011995 0 0 1
4749 0 1 0 7.002948776020496 48.94196686929224 26.64652030912053 0 0 1
4510 0 1 0 4.190277616447455 48.89456619442451 26.562831190165447 0 0 1
4516 0 1 0 6.31210944572049 50.20541795547497 26.547236617236507 0 0 1
4746 0 1 0 8.480053003303036 46.46899743533322 26.81348739765325 0 0 1
4750 0 1 0 8.47143116979841 48.950487182331834 26.68750891289196 0 0 1
4513 0 1 0 2.7460154835567234 51.36499023484633 26.503636342109946 0 0 1
4755 0 1 0 9.240571538201431 50.22015540079411 26.6926058682832 0 0 1
4279 0 1 0 0.5981903631509989 52.596807844803166 26.76125910851058 0 0 1
4751 0 1 0 9.196356618223879 47.73536761801698 26.793946946811786 0 0 1
4280 0 1 0 2.01592012933586 52.57030971645427 26.699470914732533 0 0 1
4517 0 1 0 2.7173561297673716 53.81593468710072 26.802664065585446 0 0 1
4518 0 1 0 4.119346511451208 53.86083010536045 26.725522360824254 0 0 1
4753 0 1 0 7.052403120718451 51.4544727091692 26.621764212102807 0 0 1
4514 0 1 0 4.154076081388734 51.40131304262871 26.44786260720802 0 0 1
4524 0 1 0 6.294023436526575 55.13557152101366 26.799297420694323 0 0 1
4523 0 1 0 4.881717596366888 55.13116474939163 26.827448922052373 0 0 1
4283 0 1 0 0.5842493199485087 55.08758254082011 26.873407526565185 0 0 1
4284 0 1 0 1.9948533894262803 55.10013908254521 26.975827141320565 0 0 1
4759 0 1 0 9.212107347125281 52.65698694595648 26.60651188066555 0 0 1
4786 0 1 0 8.43436880835181 71.17491597838273 26.348982941270982 0 0 1
4783 0 1 0 9.24678554346503 67.4452567200544 26.570345874312554 0 0 1
4287 0 1 0 0.5613097061834849 57.55063541131483 26.974548939376266 0 0 1
4288 0 1 0 1.9917555000571907 57.60075385431132 27.045672857517133 0 0 1
4521 0 1 0 2.709184708956336 56.32031108715232 27.010812430134965 0 0 1
4785 0 1 0 7.037217201153791 71.19027130474686 26.189904152807646 0 0 1
4525 0 1 0 2.7201481084966064 58.855320699405056 27.078271731846662 0 0 1
4550 0 1 0 4.169605048980883 73.6384736234493 26.16419949221484 0 0 1
4761 0 1 0 7.028992491416656 56.3562951704628 26.84972635509531 0 0 1
4527 0 1 0 4.819449175654352 57.562777606501164 26.9037527011961 0 0 1
4528 0 1 0 6.293851320924494 57.59848723322686 26.908701603709627 0 0 1
4552 0 1 0 6.295595693383471 72.42818193407182 26.207359216727905 0 0 1
4522 0 1 0 4.1438427013546875 56.3265262102966 27.012578382116317 0 0 1
4547 0 1 0 4.92432781374335 69.86829020461461 26.15838201865296 0 0 1
4526 0 1 0 4.134215537451975 58.81906765878215 26.960466700787883 0 0 1
4765 0 1 0 6.9883326169919 58.837597534401056 26.93425880609829 0 0 1
4762 0 1 0 8.451203823679617 56.39477749490375 26.93764306791656 0 0 1
4766 0 1 0 8.4477665140056 58.83512936671273 26.879259278103888 0 0 1
4295 0 1 0 0.5360357686426169 62.50817869005789 26.922739426253866 0 0 1
4791 0 1 0 9.156271677020264 72.42932720527052 26.36036323811752 0 0 1
4291 0 1 0 0.5507059640395631 60.03710324241151 27.065161373621805 0 0 1
4292 0 1 0 1.994502392834703 60.05259974739004 27.106850101085357 0 0 1
4296 0 1 0 1.9908119342747386 62.484558630814526 26.87767442115934 0 0 1
4529 0 1 0 2.7336745132512665 61.241923202420345 27.005314082024842 0 0 1
4775 0 1 0 9.197601074575775 62.55772499485138 26.894299385270273 0 0 1
4533 0 1 0 2.710510281696841 63.69824544401157 26.88268631375129 0 0 1
4769 0 1 0 7.06073943828457 61.24736750809708 27.066207028989908 0 0 1
4532 0 1 0 6.286074366187587 60.054096512549265 27.041127712316527 0 0 1
4535 0 1 0 4.958872587145202 62.50671210410271 26.927964068503446 0 0 1
4530 0 1 0 4.134646854376955 61.30108661539782 27.071715624791437 0 0 1
4536 0 1 0 6.352321043826224 62.49451553558002 26.980039396218153 0 0 1
4531 0 1 0 4.867050965809115 60.06266581285682 27.057231630427644 0 0 1
4534 0 1 0 4.20008255838294 63.71262312563466 26.798395376274613 0 0 1
4773 0 1 0 7.084985279555764 63.72519919528352 26.857071100622015 0 0 1
4770 0 1 0 8.490384979827411 61.28215461021513 26.932778103608765 0 0 1
4774 0 1 0 8.494734400506502 63.78348128989035 26.8016756448639 0 0 1
4787 0 1 0 9.173298953185375 69.96353732349513 26.42344464018861 0 0 1
4299 0 1 0 0.5602746753291679 64.9639484372223 26.787091417698026 0 0 1
4537 0 1 0 2.7844730120496104 66.20365097526143 26.68797090509613 0 0 1
4300 0 1 0 2.0425679381994044 64.95658530252666 26.75520327766051 0 0 1
4303 0 1 0 0.574139791663037 67.40257642890933 26.571160777383533 0 0 1
4304 0 1 0 2.0153605896680915 67.43347207147417 26.515348560569123 0 0 1
4767 0 1 0 9.199210173189895 57.630795942998525 26.944876558070156 0 0 1
4541 0 1 0 2.7489527269157863 68.67525531779842 26.40470200435726 0 0 1
4542 0 1 0 4.228334297333258 68.65134147528643 26.323883842759468 0 0 1
4777 0 1 0 7.030858760663142 66.18190113174332 26.714006354128603 0 0 1
4543 0 1 0 4.936706811930848 67.45149462786046 26.56907489243092 0 0 1
4544 0 1 0 6.363833774078734 67.47267641425644 26.62491291136663 0 0 1
4538 0 1 0 4.184706210887849 66.20848134305628 26.68763327515169 0 0 1
4539 0 1 0 4.901752762888763 64.9791964116086 26.83185619298088 0 0 1
4540 0 1 0 6.364860608607186 64.9568412009906 26.84241949813365 0 0 1
4781 0 1 0 7.057950916111513 68.70062968245169 26.496277815110155 0 0 1
4778 0 1 0 8.505574259443051 66.23285418283254 26.657876018531642 0 0 1
4782 0 1 0 8.47406414721682 68.6954526990704 26.52524800215563 0 0 1
4307 0 1 0 0.5804594936483637 69.89838061172836 26.317632468623458 0 0 1
4771 0 1 0 9.190103575774042 60.055226417550365 26.864140253736718 0 0 1
4308 0 1 0 2.0515749311446316 69.91644864471016 26.21926914601096 0 0 1
4545 0 1 0 2.733168370383113 71.13564590051926 26.038237548810173 0 0 1
4312 0 1 0 2.0274433366696307 72.40713686770475 26.007335259027666 0 0 1
4311 0 1 0 0.6054628220026153 72.37423354038354 26.23866736011954 0 0 1
4546 0 1 0 4.135793682280873 71.11075968588601 26.0990381037047 0 0 1
4548 0 1 0 6.354254893908935 69.94373958412855 26.267210230104183 0 0 1
4551 0 1 0 4.850149180053151 72.35214446771688 26.158938593418736 0 0 1
4779 0 1 0 9.252062928862545 65.02793285527024 26.752047284648693 0 0 1
4789 0 1 0 6.970465237543705 73.65886786682859 26.25710153639335 0 0 1
4790 0 1 0 8.42191864342658 73.62872931898312 26.33723830897885 0 0 1
4549 0 1 0 2.767169125357015 73.61763771281792 26.098075918803342 0 0 1
4344 0 1 0 6.36996795314197 92.32575159324257 25.782492320720618 0 -1 1
4315 0 1 0 0.6353740720711306 74.89541829347858 26.13118162095359 0 0 1
4583 0 1 0 9.184199557955441 92.35915110650508 25.952328773070963 0 -1 1
4577 0 1 0 7.053764261486283 91.07190772976573 25.822088269586548 0 -1 1
4316 0 1 0 2.0435063642498648 74.8410634544011 26.170938979135546 0 0 1
4553 0 1 0 2.7297657092725682 76.09362790609971 26.11215036372942 0 0 1
4319 0 1 0 0.5844410190277035 77.31024769952745 25.936987710582084 0 0 1
4320 0 1 0 1.9991151584478264 77.3609250453547 25.945933733414247 0 0 1
4573 0 1 0 7.022125925445043 88.56563281293823 25.69495758118089 0 -1 1
4556 0 1 0 6.309844292030459 74.85671039870456 26.178614191942525 0 0 1
4555 0 1 0 4.880366241025622 74.88566890171666 26.16259134084271 0 0 1
4578 0 1 0 8.501537237302703 91.0995831625517 25.926676153076347 0 -1 1
4554 0 1 0 4.156003040142947 76.15929054212036 26.128290988110987 0 0 1
4793 0 1 0 7.029533041644292 76.06870900304814 26.099065265183643 0 0 1
4560 0 1 0 6.361486888117153 77.3003115406501 25.929496162402565 0 0 1
4559 0 1 0 4.900604696685869 77.37676170305035 26.028292509602608 0 0 1
4574 0 1 0 8.476306673479584 88.61961006075217 25.817260032745292 0 -1 1
4794 0 1 0 8.483668402978543 76.14574702663947 26.217937537855324 0 0 1
4563 0 1 0 9.217443998372742 79.86185849108607 25.804167168291187 0 -1 1
4083 0 1 0 0.5880661136233353 79.78978975552641 25.749305732736957 0 -1 1
4567 0 1 0 9.23670540630391 82.37784968934344 25.98758139059045 0 -1 1
4321 0 1 0 2.732962940954562 81.0699015484828 25.693404194211368 0 -1 1
4084 0 1 0 2.056113725111869 79.79086766134499 25.780614051069453 0 -1 1
4557 0 1 0 2.731606226197069 78.57663436451413 25.80906867001475 0 0 1
4087 0 1 0 0.5990910286226245 82.248937216345 25.568123476638174 0 -1 1
4088 0 1 0 2.0467871828636746 82.31155427985638 25.592787403941443 0 -1 1
4797 0 1 0 7.038982884882269 78.57522949893993 25.87254121636562 0 0 1
4561 0 1 0 7.079914660846998 81.15086725032735 25.775890430297732 0 -1 1
4323 0 1 0 4.884272901857745 79.84387755799187 25.69627263820866 0 -1 1
4324 0 1 0 6.3507927561418445 79.82749508598218 25.770174402538817 0 -1 1
4558 0 1 0 4.189722397967759 78.58748213588083 25.798555693604737 0 0 1
4322 0 1 0 4.198930007454476 81.06525910880487 25.715633024960436 0 -1 1
4327 0 1 0 4.906314793683684 82.3440897983526 25.72608993475295 0 -1 1
4328 0 1 0 6.354716131976405 82.35642395167636 25.87972921629702 0 -1 1
4562 0 1 0 8.53253994145739 81.13711489408873 25.82089559255073 0 -1 1
4798 0 1 0 8.487157422567707 78.59366594732741 25.88584181381897 0 0 1
4091 0 1 0 0.5758377745811906 84.76474816951365 25.491592875743887 0 -1 1
4799 0 1 0 9.217999052825284 77.39537869039978 26.061238097558938 0 0 1
4092 0 1 0 2.0270934505194136 84.82018900281258 25.514420252345023 0 -1 1
4325 0 1 0 2.768592327615247 83.60796461953211 25.532364829440077 0 -1 1
4579 0 1 0 9.166806150617688 89.85069089086547 25.90302630343084 0 -1 1
4329 0 1 0 2.7745423412155414 86.05072253144915 25.63454131373705 0 -1 1
4095 0 1 0 0.5759245202672192 87.30529186030094 25.55810722703177 0 -1 1
4096 0 1 0 2.0108391195324153 87.27825524337376 25.589800632681158 0 -1 1
4335 0 1 0 4.89425372732795 87.34120174428507 25.708416995264525 0 -1 1
4569 0 1 0 7.075667706119129 86.07410389080289 25.817384741640677 0 -1 1
4565 0 1 0 7.074920099043465 83.59440415720674 25.930714522052373 0 -1 1
4331 0 1 0 4.938872532427899 84.83950982149919 25.73979113569321 0 -1 1
4332 0 1 0 6.355621236381215 84.85345186181145 25.863312211241688 0 -1 1
4326 0 1 0 4.220226597761466 83.57584888215455 25.5779680836929 0 -1 1
4330 0 1 0 4.161732971801045 86.0835208705561 25.687204181183784 0 -1 1
4336 0 1 0 6.311253754490792 87.32638548961566 25.73888706352909 0 -1 1
4570 0 1 0 8.515170477687638 86.12677999720609 25.871901982240097 0 -1 1
4566 0 1 0 8.475194711132115 83.61816236980631 25.98802582460647 0 -1 1
4333 0 1 0 2.7203255259240127 88.4886582674523 25.634240010606774 0 -1 1
4100 0 1 0 2.03606016427793 89.72067920715477 25.520163333930103 0 -1 1
4099 0 1 0 0.5651869645714591 89.79460146534214 25.593345604515584 0 -1 1
4575 0 1 0 9.176852556455971 87.3714671643149 25.897794655684027 0 -1 1
4571 0 1 0 9.191564164893606 84.86468307561721 25.994224614797997 0 -1 1
4337 0 1 0 2.718438228503451 91.03182496944414 25.58517622981679 0 -1 1
4339 0 1 0 4.8931146361437134 89.8313196202786 25.798893663468455 0 -1 1
4334 0 1 0 4.176179920313128 88.5741505375102 25.73775507690445 0 -1 1
4340 0 1 0 6.32048260075843 89.79902040456342 25.752424942076086 0 -1 1
4338 0 1 0 4.164687584296285 91.05184163385778 25.714566921567393 0 -1 1
4103 0 1 0 0.585511698857572 92.31553678431796 25.51000474602801 0 -1 1
4104 0 1 0 2.0399303538661724 92.25028317181744 25.496426623922645 0 -1 1
4343 0 1 0 4.949892930342397 92.3181587354767 25.696038623358337 0 -1 1
4795 0 1 0 9.17479958182013 74.90230629966342 26.35201332603122 0 0 1
4599 0 1 0 9.258443166879063 102.28210055102151 26.193409064076413 0 -1 1
4131 0 1 0 0.6296298997594617 109.66058884691104 26.408977373786445 0 -1 1
4132 0 1 0 2.0664413525223875 109.67418766124987 26.355162735702272 0 -1 1
4371 0 1 0 4.9203367391631865 109.69691197952096 26.159383334427897 0 -1 1
4107 0 1 0 0.5848558902919043 94.72829361097692 25.68125171420537 0 -1 1
4606 0 1 0 8.460825694206152 108.51757484952908 26.165576166199795 0 -1 1
4603 0 1 0 9.209390607132903 104.78852822899036 26.274824262316166 0 -1 1
4108 0 1 0 2.0312588170634474 94.77996854707786 25.64627306630113 0 -1 1
4366 0 1 0 4.222802670243262 108.41946568971102 26.21022823370297 0 -1 1
4341 0 1 0 2.7671232284240217 93.5237492558811 25.546050337280263 0 -1 1
4345 0 1 0 2.7841405342766725 96.01549604693018 25.87543370362014 0 -1 1
4595 0 1 0 9.223564252280227 99.79387468757136 26.12408351443956 0 -1 1
4609 0 1 0 7.006985635879323 110.96712027814544 26.007514165188688 0 -1 1
4348 0 1 0 6.374349739919134 94.84719246696353 25.757895481564542 0 -1 1
4347 0 1 0 4.9296280266312085 94.80085348747474 25.792288404237862 0 -1 1
4372 0 1 0 6.314400474348677 109.73667196989253 26.12437158920695 0 -1 1
4342 0 1 0 4.214095317720468 93.54515555128744 25.709309872608333 0 -1 1
4581 0 1 0 7.104565213657863 93.58228285947742 25.77573199552324 0 -1 1
4346 0 1 0 4.193963252402655 96.015995080689 25.84553565374254 0 -1 1
4585 0 1 0 7.063407198432067 96.08668020838803 25.7610878798583 0 -1 1
4582 0 1 0 8.489376604803446 93.59715444858597 25.802942709736925 0 -1 1
4586 0 1 0 8.540684547782867 96.10376486668157 25.737541090693068 0 -1 1
4115 0 1 0 0.6828940479905278 99.73728107551153 26.152006614745478 0 -1 1
4111 0 1 0 0.617736586577373 97.28409474925046 25.90032869172043 0 -1 1
4587 0 1 0 9.210288703009166 94.85184248197876 25.812959381174636 0 -1 1
4112 0 1 0 2.0555208733367665 97.27279222430086 25.941237897882225 0 -1 1
4349 0 1 0 2.8012312462344267 98.54480667991237 26.08955403417944 0 -1 1
4116 0 1 0 2.119188684735969 99.77808854930159 26.09289881148214 0 -1 1
4370 0 1 0 4.186576427472007 110.94117797053791 26.165109639056013 0 -1 1
4353 0 1 0 2.7941919500797363 101.04605496387609 26.103422478376825 0 -1 1
4589 0 1 0 7.061963526078647 98.53872778716143 25.934425518992978 0 -1 1
4356 0 1 0 6.348491717826072 99.802178008949 26.100334508870123 0 -1 1
4352 0 1 0 6.315169793877345 97.30984343705256 25.84783189938101 0 -1 1
4351 0 1 0 4.913908531111461 97.26677056488505 25.896335742391845 0 -1 1
4350 0 1 0 4.202034384438437 98.52361567150514 26.051780970283314 0 -1 1
4355 0 1 0 4.89657903761258 99.78426245775067 26.108733759041314 0 -1 1
4354 0 1 0 4.214924695001286 101.04938223929321 26.112332674746288 0 -1 1
4593 0 1 0 7.09211904238262 101.03882174606208 26.199092517675965 0 -1 1
4594 0 1 0 8.525860187044497 101.00915208638907 26.20750098044732 0 -1 1
4590 0 1 0 8.505654913653606 98.55153241867579 25.954987143282445 0 -1 1
4119 0 1 0 0.6568580769251267 102.23091903481857 26.28757235365623 0 -1 1
4591 0 1 0 9.256462743405368 97.31611963113102 25.88716012309023 0 -1 1
4120 0 1 0 2.0521422326004957 102.23732925627299 26.0167003354862 0 -1 1
4357 0 1 0 2.7627426529312507 103.47362719070512 25.98908790141281 0 -1 1
4123 0 1 0 0.6688690693031542 104.68935387362396 26.293924840931226 0 -1 1
4124 0 1 0 2.063688168417303 104.69855721795417 26.135551278045128 0 -1 1
4607 0 1 0 9.20816711348791 107.25730939009073 26.201656332823283 0 -1 1
4361 0 1 0 2.7897835331363066 105.9177872791298 26.16551556535778 0 -1 1
4362 0 1 0 4.21166414343043 105.947204819193 26.155992447500058 0 -1 1
4363 0 1 0 4.88373232067766 104.68436155464758 26.155254884344103 0 -1 1
4597 0 1 0 7.0787925905776135 103.5250212345813 26.094576512359815 0 -1 1
4359 0 1 0 4.9399438340818085 102.25931167617807 26.065881142005264 0 -1 1
4360 0 1 0 6.38027724514389 102.24354039945914 26.17031196590931 0 -1 1
4358 0 1 0 4.1733589177471275 103.46641945406147 26.063135429822598 0 -1 1
4364 0 1 0 6.337391488885081 104.71454832568098 26.13777608045649 0 -1 1
4601 0 1 0 7.059027047488416 105.98888127968719 26.148170221448666 0 -1 1
4602 0 1 0 8.500488734356031 106.03884686625477 26.243489376089336 0 -1 1
4598 0 1 0 8.542243133917507 103.51983963771481 26.116797212402915 0 -1 1
4127 0 1 0 0.6433759305496602 107.17726011606635 26.26336810138055 0 -1 1
4128 0 1 0 2.0781879363724367 107.15322723818095 26.174261473006503 0 -1 1
4365 0 1 0 2.7900744121000005 108.39631554620067 26.279536463593825 0 -1 1
4368 0 1 0 6.372508688491517 107.24957587286168 26.10822008608811 0 -1 1
4367 0 1 0 4.901568385770076 107.16634594562818 26.11200397587491 0 -1 1
4605 0 1 0 7.037151930787205 108.50037125429326 26.162732791970594 0 -1 1
4369 0 1 0 2.7818775851182043 110.92701589633371 26.323401737353674 0 -1 1
4611 0 1 0 9.178670377703325 109.7104678424622 26.06527117339689 0 -1 1
4610 0 1 0 8.427300883140301 110.97361977232079 26.04434736433293 0 -1 1
4631 0 1 0 9.125864382823837 122.12794993526856 26.28179610375031 0 -1 1
4399 0 1 0 4.886959890633544 127.09633653095047 26.599860643136214 0 -1 1
4135 0 1 0 0.5990147796844157 112.16441365838483 26.447096695144626 0 -1 1
4614 0 1 0 8.442708479703223 113.4563371258354 26.017029003935157 0 -1 1
4136 0 1 0 2.0525212604546588 112.18434333385879 26.299883619084355 0 -1 1