(written by ASE)

11640 atoms
3 atom types

0.0      154.00799999999998  xlo xhi
0.0      148.19999999999999  ylo yhi
0.0      151.07609208607428  zlo zhi

Masses

     1      12.010999996910238 # C
     2      1.0079999997406979 # H
     3      15.998999995884349 # O

Atoms # full

     1   0   1   0.0       25.55816534468088      1.9140586972225859      38.933526597508603
     2   0   1   0.0      13.483472059494256     -9.1855745684655652      39.936112770127941
     3   0   1   0.0      25.547586365974524     -7.9440498576703904      39.641049232751939
     4   0   1   0.0      13.524599865371901     -6.7122158615858041      39.648237939164652
     5   0   1   0.0      25.548513307879176      -5.511679025742164      39.271165449220547
     6   0   1   0.0      13.424577758843327     -4.2302052211329881      39.697119278348396
     7   0   1   0.0      25.608348153672267     -3.0008745719345602      39.238548359190816
     8   0   1   0.0      13.425708083765157     -1.7771135146671528      39.777887420311991
     9   0   1   0.0      25.600805870617457    -0.53792177952604237      39.054058578375376
    10   0   1   0.0      13.438386120296332     0.68845012718154097      39.732768984338449
    11   0   1   0.0      14.902096826664412      -9.167822269233314        39.9534965041763
    12   0   1   0.0      15.607041361993154     -7.9198730575026381      39.893564333576549
    13   0   1   0.0      14.900505769536544     -6.6663552593594817      39.742167236455728
    14   0   1   0.0      15.657398360691243     -5.4014987900567659      39.721066267696223
    15   0   1   0.0      14.838300789131857     -4.2065750090496294      39.663279425376501
    16   0   1   0.0      15.583809536479778     -2.9687553305608221      39.717509253160117
    17   0   1   0.0      14.871766221690052     -1.7548676324755936      39.639358731475347
    18   0   1   0.0      15.610407865589568    -0.51567362807745765      39.569286515895392
    19   0   1   0.0       14.83589979815692     0.69741398244363373      39.631512856869762
    20   0   1   0.0       15.58403995899114      1.9282665383010544      39.418945836444912
    21   0   1   0.0      17.057600580800269      1.9460151109821546      39.279913432344621
    22   0   1   0.0      17.745119337182711     -9.1676585242395561      39.927566437910478
    23   0   1   0.0      17.009223302570376     -7.9005640954206022      39.886390036205682
    24   0   1   0.0      17.738544290520402     -6.6334315979292002      39.950921390645398
    25   0   1   0.0      17.060592953249579     -5.4153722223356997      39.881098541301292
    26   0   1   0.0      17.706979279901649     -4.1499857365642816      39.797478854435269
    27   0   1   0.0      17.005175406401499     -2.9173090498054317      39.753979779478819
    28   0   1   0.0      17.733422327957015      -1.728928365531001      39.559165357787677
    29   0   1   0.0      17.004179864535139    -0.46947428357547361      39.398381043183818
    30   0   1   0.0      17.722349873235775     0.76812064620454745      39.236496659629644
    31   0   1   0.0      19.171854167890164     -9.1183160360185411      39.979972032767328
    32   0   1   0.0      19.883937145532673     -7.8576972435175865      39.934045719766161
    33   0   1   0.0       19.17372680643545      -6.618574276835667      39.952495404063782
    34   0   1   0.0      19.879305413610602     -5.4245737149547057      39.784092119042739
    35   0   1   0.0      19.135501121884378     -4.1676093559097751      39.707258022789702
    36   0   1   0.0      19.835036725353262     -2.9365518923345033      39.463809826053286
    37   0   1   0.0      19.145269334908978     -1.7214936904819165      39.364679948293031
    38   0   1   0.0      19.828831894060968    -0.48575536995995511      39.251985727058639
    39   0   1   0.0      19.153128947724884     0.78479142452645112      39.159760021572666
    40   0   1   0.0       19.85932981491381      1.9908984595921875       39.05150151169358
    41   0   1   0.0      21.303195747528992      1.9549595499502785      38.926910417737538
    42   0   1   0.0      21.998683233501119     -9.1535835485578154      39.853389717274524
    43   0   1   0.0      21.296359944011925     -7.8714746796895847      39.829190135525039
    44   0   1   0.0      22.025717987159346      -6.688910922661373      39.798030169724854
    45   0   1   0.0      21.281628619354674     -5.4151876252053643      39.675615228984164
    46   0   1   0.0      21.972722336508777     -4.2445182449716903      39.480792410241357
    47   0   1   0.0      21.311585962522404     -2.9474663112019921      39.365293733657595
    48   0   1   0.0      22.011554838604482     -1.7214842347314734      39.224902950067964
    49   0   1   0.0      21.275703924796669    -0.52762221541402687      39.002561670765019
    50   0   1   0.0       21.98143128457103     0.65669540865399556      38.847183374945317
    51   0   1   0.0      23.400315292347273     -9.1346502185014966      39.938517481565064
    52   0   1   0.0      24.160707786875928     -7.9675617929107387      39.647135815507554
    53   0   1   0.0      23.430592577127264      -6.755231324755556      39.584994303220121
    54   0   1   0.0      24.107510358590755     -5.4778258687514425      39.385726804279706
    55   0   1   0.0      23.398401958971721     -4.2911061231538978      39.345968672635081
    56   0   1   0.0      24.191623219044747     -2.9875131903994521      39.266063194293757
    57   0   1   0.0      23.454288458411426     -1.7335949612865496      39.161689441359208
    58   0   1   0.0      24.173310164902883    -0.50347730793478629       39.06041063386472
    59   0   1   0.0      23.433953128174728        0.68954535844789      38.943094433038496
    60   0   1   0.0      24.135042225014733      1.8956321933645879      38.874602940089417
    61   0   1   0.0      25.654490599510673      14.224818610658756      39.462287156380135
    62   0   1   0.0       13.47989040351206      3.1704557750464923      39.587886275019152
    63   0   1   0.0      25.556318487509262      4.3768180690000955      38.886440340711914
    64   0   1   0.0       13.48884942543228       5.696263355412535      39.571743252979893
    65   0   1   0.0      25.574519562461887      6.8161147472701851      38.940936548957268
    66   0   1   0.0      13.474650622940963      8.1528909335893172      39.589469201066223
    67   0   1   0.0      25.603932128662478       9.284106242099071        39.1324521884411
    68   0   1   0.0      13.461739323501989      10.634140564742298      39.640379201706715
    69   0   1   0.0       25.59381763689569      11.717942980318751      39.294112756950796
    70   0   1   0.0      13.442594518109061      13.095563331607362      39.369106493860173
    71   0   1   0.0      14.884484087029406      3.1645379504580191      39.407142829507805
    72   0   1   0.0        15.6061126367954      4.3835420441864876       39.37567577862216
    73   0   1   0.0      14.872689495938932      5.6441509151239382      39.462777759118005
    74   0   1   0.0      15.631515821529415      6.8592923450902914       39.64193891227827
    75   0   1   0.0      14.949646303476904      8.1312166495849958      39.721895199100565
    76   0   1   0.0      15.604103734049438      9.3806560629489901      39.668434580727265
    77   0   1   0.0      14.898274351399373      10.612407046923641      39.660267237852807
    78   0   1   0.0      15.615550655997751      11.841647294771278      39.556329198357062
    79   0   1   0.0       14.93131429825832      13.036616601899393      39.494329929674699
    80   0   1   0.0      15.608103168708542      14.309444315737103      39.385258189277906
    81   0   1   0.0      17.033280145853691      14.261515131815161      39.372502848444753
    82   0   1   0.0      17.726967265851563      3.2260189128238625      39.222900675037131
    83   0   1   0.0      17.011944934080717      4.4475367421383485      39.243853129266782
    84   0   1   0.0      17.746080407420372      5.6489707652358412      39.387183840442518
    85   0   1   0.0      17.034979584461794       6.913209178908768      39.508886496742782
    86   0   1   0.0      17.742235433278154      8.1436239531104668      39.581117185384564
    87   0   1   0.0      17.068788967325592      9.3229225662274402      39.635591141275356
    88   0   1   0.0      17.824897963905602       10.57381105744169       39.72847733127302
    89   0   1   0.0      17.073573060670785      11.809557660964273      39.639673770874538
    90   0   1   0.0      17.788658579665626       13.03347262859001      39.508095670383625
    91   0   1   0.0      19.132766422116024      3.2113146956729319      39.113787452786333
    92   0   1   0.0      19.894420757275412      4.3746688562638036      39.041768856775043
    93   0   1   0.0      19.154867619122548      5.6640983778372433      39.175445321628743
    94   0   1   0.0      19.861044489134827      6.9802424228711359      39.224997655610316
    95   0   1   0.0      19.169856035472332      8.1646312064057707      39.502022614904902
    96   0   1   0.0      19.915304337319078      9.3762426860469432       39.47989383299543
    97   0   1   0.0      19.270623193558446      10.605116580056279      39.628900045388114
    98   0   1   0.0      19.941087285951049      11.818411263234957      39.534295901510951
    99   0   1   0.0      19.215234046391632      13.019442947447367      39.509954050493015
   100   0   1   0.0      19.920891149672805      14.249624931841431      39.508332666378926
   101   0   1   0.0       21.37125163329252      14.236261855819855      39.535626938940311
   102   0   1   0.0      22.052362320421736      3.1945951665059726      38.973256401448161
   103   0   1   0.0          21.32359613581      4.4307783602783868      39.048358407358585
   104   0   1   0.0      21.958614746037391      5.6548161980841032      39.023560768706609
   105   0   1   0.0      21.274236524759896      6.9048928103620648      39.088459599713183
   106   0   1   0.0      22.001789404074771      8.1219240546633049      39.100154546667795
   107   0   1   0.0      21.310177750292041      9.3037070851802106      39.257321779343663
   108   0   1   0.0      22.012905661705904      10.530885208829964      39.376627921262404
   109   0   1   0.0      21.364732715932966      11.776167827053314      39.560642970857899
   110   0   1   0.0      22.074360051999292      12.997399946829173      39.538541682641615
   111   0   1   0.0      23.465483865828332      3.1705113888350156      38.836466843537735
   112   0   1   0.0      24.192606839242639      4.4083301538645054       38.86656059331434
   113   0   1   0.0      23.384475719546955      5.6322017391633663      39.003323012313054
   114   0   1   0.0      24.118253882738145      6.8261450374685344      38.988302970567688
   115   0   1   0.0      23.484868692821728      8.0710989848631325       39.08840734559854
   116   0   1   0.0      24.176043620099097      9.2593980371914597      39.265786202418646
   117   0   1   0.0      23.442898538490862       10.51315251035067      39.418830113966742
   118   0   1   0.0      24.169787087263789      11.757154055295555      39.491122754408615
   119   0   1   0.0       23.49219667817043      12.955739102766815      39.430611344522596
   120   0   1   0.0      24.233510855686841      14.230239390472319      39.354075498817181
   121   0   1   0.0      25.642794530644679      26.651162798773342      39.062576071802049
   122   0   1   0.0      13.479295918852568      15.527837626695209      39.212381811318728
   123   0   1   0.0      25.652489436076053      16.687015229905725      39.224416122108245
   124   0   1   0.0      13.521997970056349      18.033853084455135      39.070257852694731
   125   0   1   0.0      25.635018344476936      19.232979227896053      39.001192965998399
   126   0   1   0.0      13.507330761561112      20.491622736509857      38.948397836935619
   127   0   1   0.0      25.649573263616212      21.660897011585948      38.937862656635247
   128   0   1   0.0      13.480790450592913      22.918604281880345      38.898576323850037
   129   0   1   0.0       25.59923224843401      24.171427051586679      39.004556482437245
   130   0   1   0.0      13.517661039616758      25.454913742809765      38.877262612362273
   131   0   1   0.0      14.906138105703773       15.54780229739929      39.237284088711093
   132   0   1   0.0       15.63745524967085      16.748383837420956      39.177153269688326
   133   0   1   0.0      14.967315717992209      17.979862756111306      39.006754169370993
   134   0   1   0.0      15.659159870334808      19.253843961103865      38.946732104920159
   135   0   1   0.0      14.938976400262716      20.468470892870027      38.945893273581248
   136   0   1   0.0      15.689447004311308      21.667316227748238      38.834777506227098
   137   0   1   0.0      14.914463770252418      22.871159840047536      38.917778322668788
   138   0   1   0.0      15.657404227473679        24.1487129531702      38.976487925701058
   139   0   1   0.0      14.953092881595373      25.392969102787891      38.978554109077244
   140   0   1   0.0      15.680047554260186      26.609871395141621      38.940779187448129
   141   0   1   0.0      17.121324477980927      26.628347328636735       38.98679914070258
   142   0   1   0.0      17.763592939604198      15.469643129017532      39.359927566140328
   143   0   1   0.0      17.080450059214126      16.736737756664997      39.212823303240221
   144   0   1   0.0      17.823563520211025      17.929742079814982      39.070347606121182
   145   0   1   0.0      17.084916486522037      19.250300971272257      39.036569120314311
   146   0   1   0.0      17.836045160191162      20.476234950353277      38.915698152394341
   147   0   1   0.0      17.124287020186731      21.679562958430989      38.836849661912623
   148   0   1   0.0      17.758627432465865      22.922627245529846       38.84042804257161
   149   0   1   0.0      17.066981067935465      24.190100811402154      38.993194417080048
   150   0   1   0.0      17.818042730801295      25.377758359479401      39.026150818890898
   151   0   1   0.0        19.2110026376577      15.491804212653939      39.395524467176621
   152   0   1   0.0      19.925146678188391      16.707087765427065      39.194539710984678
   153   0   1   0.0      19.248780785140632       17.94456555017436      39.036322535091159
   154   0   1   0.0      19.985854596159186      19.152533533761268      38.948054714661161
   155   0   1   0.0      19.283892181919807      20.435358655274957      38.877488871345612
   156   0   1   0.0      19.970478088809848      21.650465862297494      38.761481847025308
   157   0   1   0.0      19.250556239917351      22.906928735632356       38.81422166927748
   158   0   1   0.0      19.910239545094967      24.134798501133311       38.98939644900738
   159   0   1   0.0      19.220105274387855      25.356903797696155      39.082034386843937
   160   0   1   0.0      19.926162069787463       26.61684354225984       39.05643570410691
   161   0   1   0.0      21.407454513440751      26.611413344132398       38.99218805276341
   162   0   1   0.0      22.077785263702886      15.480137861515168      39.354115505594351
   163   0   1   0.0      21.394227537958287      16.713621762724834       39.21317787179305
   164   0   1   0.0      22.098920182680459      17.956961126928739      39.106103034362455
   165   0   1   0.0      21.425427940229859      19.174812710778347      39.060026746669415
   166   0   1   0.0      22.101466558711575      20.467086163942781      39.032755036540159
   167   0   1   0.0      21.391019273688006      21.676111561518482      38.886082660881371
   168   0   1   0.0      22.072814700553462      22.948277142990623      38.979354274770131
   169   0   1   0.0      21.336277430495102      24.158939321305631      39.030956277632946
   170   0   1   0.0      22.084206126313358      25.372253101248283      39.051140969507117
   171   0   1   0.0      23.527617171032716      15.454235148461391      39.316639615386229
   172   0   1   0.0      24.260486065279885      16.712575229431884      39.228075160984851
   173   0   1   0.0      23.541369705728641      17.956652154688644      39.034565024595508
   174   0   1   0.0       24.14929510189662      19.213678527306204       39.00504625984005
   175   0   1   0.0       23.47805063893103      20.430955345530588      38.956582254722427
   176   0   1   0.0      24.182682120651233      21.628351696877161      38.900552337346888
   177   0   1   0.0      23.484039000437704      22.899986351919914      38.922101979109229
   178   0   1   0.0      24.172010353515073      24.124306737248666      38.991447204454616
   179   0   1   0.0       23.50690791815882      25.353400306327309      39.015744500054609
   180   0   1   0.0      24.216490498918787      26.635791563309603      38.954502021350521
   181   0   1   0.0      25.646295295159689      38.989155178307016      38.839620809385032
   182   0   1   0.0      13.518085422226278      27.886994041977932      38.772379773246698
   183   0   1   0.0      25.630609894372927      29.170348790922557      39.153350996263818
   184   0   1   0.0      13.525997906482408      30.345024395088963      38.624483077480527
   185   0   1   0.0      25.626702644933079      31.573977527843052      39.048622421280676
   186   0   1   0.0      13.502305469121602       32.80411227702362      38.349180395630199
   187   0   1   0.0       25.68086159270046      34.108776760479358      38.963358526228667
   188   0   1   0.0      13.530785738460981      35.286843096500469      38.159185721106411
   189   0   1   0.0      25.615497178542441       36.53668374706541      38.984331789496252
   190   0   1   0.0      13.456256502826896      37.793574652858908      38.072645680433389
   191   0   1   0.0      14.929732609545239      27.835927390276161      38.841898353854504
   192   0   1   0.0      15.665847326525499      29.107471595385391      38.673936531001679
   193   0   1   0.0      14.934695803406237      30.324101622802711      38.612911341961087
   194   0   1   0.0      15.624335516643447      31.591224033192912      38.499900023425923
   195   0   1   0.0      14.919701668915039      32.804927853975627      38.380367079465024
   196   0   1   0.0      15.661822856794194      34.078968058960939       38.25157757349038
   197   0   1   0.0      14.987295713249468      35.312025305824484      38.163226177911959
   198   0   1   0.0        15.6321606706564      36.525058550472991      38.182499422054796
   199   0   1   0.0        14.9021763350394       37.79073846367622      38.150310113414704
   200   0   1   0.0      15.576727573513415      38.970084969214938      38.187008046297457
   201   0   1   0.0       17.07628663121584      38.981995913508655      38.272053946421927
   202   0   1   0.0      17.817334429097659      27.826249756849769      38.912171605315933
   203   0   1   0.0      17.102524984808714       29.13656748732139      38.744404522516511
   204   0   1   0.0      17.768856382669114      30.365451130857501      38.644608825125317
   205   0   1   0.0      17.069691552009157      31.620540532540694      38.473572591022034
   206   0   1   0.0      17.817641169315337       32.81364130699464      38.335304453182729
   207   0   1   0.0       17.07192901120855      34.034662533930437      38.294000063987852
   208   0   1   0.0      17.789880864977096      35.298017188821866      38.390271302874886
   209   0   1   0.0      17.088262717431437      36.538881077264982      38.350457229454911
   210   0   1   0.0      17.770403855336504      37.780328449974917      38.412972208079438
   211   0   1   0.0      19.224610311675498      27.806433835625512      38.943748676592477
   212   0   1   0.0       19.89192400980539      29.051842308555052      38.840956332922538
   213   0   1   0.0      19.240269817756101      30.335607115029951      38.696229644636595
   214   0   1   0.0      19.914397721528044      31.565853071722142      38.705461615365479
   215   0   1   0.0      19.235075146904624       32.79669551363834      38.561043926015365
   216   0   1   0.0       19.93787834024419      34.052990724666969       38.58988714148191
   217   0   1   0.0      19.175503413829464      35.280212176865597      38.502003119936887
   218   0   1   0.0      19.888337146236811      36.499079574699778      38.566234342610969
   219   0   1   0.0      19.267784915740027      37.770809434334566      38.582450447247098
   220   0   1   0.0      19.957130090280895      38.993809061518242      38.582639498899333
   221   0   1   0.0      21.316876029424115      39.015927854804481      38.711076687038528
   222   0   1   0.0      22.086834079066783      27.826492611637111      38.965116726876573
   223   0   1   0.0      21.315662406095896       29.04471881839633       38.97425839009027
   224   0   1   0.0      22.034480225514933      30.289013004585922      38.933148079552261
   225   0   1   0.0      21.365498957014886      31.567562172763356      38.750411502009392
   226   0   1   0.0      22.093595581184243      32.750850726167748      38.751209491344532
   227   0   1   0.0      21.363353603723304      34.010803025043622      38.729712333781308
   228   0   1   0.0      22.049936265591299      35.219214309396541      38.693066152092534
   229   0   1   0.0      21.360620907472352      36.515235084880352      38.604228368026519
   230   0   1   0.0      22.071785536882711      37.743548225428327      38.780858131414334
   231   0   1   0.0      23.473225422753192      27.872120255767474      38.980056974463231
   232   0   1   0.0      24.143786298228054      29.128727303850297      39.133799013437063
   233   0   1   0.0      23.442435106625837      30.334041225485578      38.922350861082691
   234   0   1   0.0      24.197932995931637      31.548687653213516      38.951969653333968
   235   0   1   0.0      23.565156935273365      32.794616826002802      38.972113043121148
   236   0   1   0.0       24.24340239960577      34.056469701277798      38.926884544727976
   237   0   1   0.0      23.450828795230777      35.243253800304281      38.800357949368617
   238   0   1   0.0      24.197254389906647       36.51135701917169      38.926062217843054
   239   0   1   0.0      23.509684086675517      37.752483438872822      38.840074462178357
   240   0   1   0.0      24.219825244207069      38.963066734098618      38.816301180023544
   241   0   1   0.0      25.646408283965204      51.321858684681892      38.663664051185066
   242   0   1   0.0      13.553345864829303      40.209556117483878      37.789288958319972
   243   0   1   0.0      25.612701716692253      41.491904740824069      38.863570801226395
   244   0   1   0.0      13.500292354111108       42.71787017734502      38.091077711739445
   245   0   1   0.0      25.609990015072619      43.921664476842004      38.909737387976477
   246   0   1   0.0      13.523539764821935      45.186591011772066      38.148035957279035
   247   0   1   0.0      25.648372850606957      46.347952503705841      38.744519066453975
   248   0   1   0.0      13.489520568029437      47.655590916214997       38.18010622476563
   249   0   1   0.0      25.654847776991591      48.858293864063448       38.68473785365898
   250   0   1   0.0      13.495231487546736      50.095118419627866      38.096883242984788
   251   0   1   0.0      14.913948068544483      40.191748615111891      38.023136539361701
   252   0   1   0.0      15.659950764522923      41.487444335637733      38.126518234459652
   253   0   1   0.0      14.971744087617475       42.72992484425982      38.129458483826937
   254   0   1   0.0      15.677298030827966      43.945069333706847      38.354318551720752
   255   0   1   0.0      14.965986765469189      45.167144411783376      38.270568344743147
   256   0   1   0.0      15.587839190025221      46.402984776364391      38.472154600420666
   257   0   1   0.0      14.928475990774702       47.59948401250422       38.47307509208791
   258   0   1   0.0      15.648208321830001      48.846128378046068      38.454670064747049
   259   0   1   0.0      14.909025740002113      50.078608133389281      38.376859514102165
   260   0   1   0.0      15.599776488023588      51.368524713414537      38.416990219791963
   261   0   1   0.0      17.041209312002547      51.339019931198706       38.40048171912327
   262   0   1   0.0      17.774176018314414      40.215111596110454      38.308410974925913
   263   0   1   0.0       17.10911324713058       41.49787897842053      38.319205267040978
   264   0   1   0.0      17.836421153398774      42.689712855850736      38.446901091842612
   265   0   1   0.0      17.091021069637382      43.942689637838548      38.452316743114991
   266   0   1   0.0      17.764876574490938      45.192328304856737      38.537200672044932
   267   0   1   0.0      17.093035530125952      46.375134425268214      38.540774089769492
   268   0   1   0.0      17.794728011590919      47.600856976725254      38.601030203057995
   269   0   1   0.0        17.0707129552368      48.891741421471991      38.469197100132078
   270   0   1   0.0      17.775512188663495      50.083937301058825      38.518248893832634
   271   0   1   0.0       19.21750775608783      40.206445894480616      38.422073748453911
   272   0   1   0.0      19.978102741490513       41.47621854785735      38.392222200604884
   273   0   1   0.0      19.237369208853544      42.735594484875328      38.517763462376003
   274   0   1   0.0      19.921407575367159       43.99654614536761       38.65609805006644
   275   0   1   0.0       19.19740951689371      45.214195757130391       38.67791460257812
   276   0   1   0.0       19.94057634862078      46.433484676325257      38.688683529156627
   277   0   1   0.0      19.233042632819483      47.626479566641741      38.734575994706653
   278   0   1   0.0      19.899119339112364      48.864471170354435      38.700589800001339
   279   0   1   0.0      19.184296890617549      50.075615358162139      38.563859740840499
   280   0   1   0.0      19.902048047155674      51.340518882710541      38.619430383229201
   281   0   1   0.0      21.333829061429153      51.318138094413136      38.553292398218758
   282   0   1   0.0         22.085085450704      40.198613524064989      38.617597187537918
   283   0   1   0.0      21.387421448784455      41.452863145990293       38.53841289427799
   284   0   1   0.0      22.031320747636276      42.671122670844632      38.659400053923598
   285   0   1   0.0      21.346574145088937       43.93227712667116      38.708129182391133
   286   0   1   0.0      22.089823580694421      45.139771548416157       38.76277030514386
   287   0   1   0.0      21.353670014792637      46.374926337577413      38.714388208346264
   288   0   1   0.0      22.087717479690468      47.640121741057868      38.722164082713867
   289   0   1   0.0      21.351237647459129      48.865711930327606      38.706807317223152
   290   0   1   0.0      22.065389729252647      50.073396998406643      38.542527706931246
   291   0   1   0.0      23.507016787050507      40.198563796952179      38.763248545257589
   292   0   1   0.0      24.203702692695472      41.434501733468458      38.840590980559838
   293   0   1   0.0      23.471692770480178      42.670323255956873      38.796752168324716
   294   0   1   0.0      24.177526943095124      43.928996547329355      38.880734656036992
   295   0   1   0.0      23.513487778827113      45.174571880424729      38.856709557425624
   296   0   1   0.0       24.22596372696341      46.391339664557229      38.794768176555927
   297   0   1   0.0      23.524170815319025      47.669032437685772      38.734608900593841
   298   0   1   0.0      24.251761248372059      48.877197873682348      38.688956330074717
   299   0   1   0.0      23.501308817978238      50.102443707724987      38.616944939679641
   300   0   1   0.0      24.200172746291237      51.330016119639041      38.568353676378337
   301   0   1   0.0      25.592338103900438      63.648004079976801       38.58783631132377
   302   0   1   0.0      13.478710611660162      52.614127853406707       38.09552670787545
   303   0   1   0.0       25.60452821830944      53.773066973882052       38.79105071799215
   304   0   1   0.0      13.492949188168922      55.101406826004762      38.355112753657629
   305   0   1   0.0      25.637506735983685      56.257301516585144      38.940914479049582
   306   0   1   0.0      13.497284466001789      57.581165547273855      38.353347238511112
   307   0   1   0.0      25.671244970724164      58.715868967510609      38.877290677585314
   308   0   1   0.0      13.524465618268206       60.08733054357301      38.162345822083331
   309   0   1   0.0      25.579160694104601      61.159013746790023      38.750353821039113
   310   0   1   0.0      13.483158651161446      62.505144956240592      37.949312348291052
   311   0   1   0.0      14.909273378301311       52.60164120556523      38.327196138067656
   312   0   1   0.0      15.628387412475648      53.834858235332639      38.468076602461757
   313   0   1   0.0      14.906816770021683       55.08668740077654      38.416212527863244
   314   0   1   0.0       15.58157019865895      56.336751133700474      38.531535893557248
   315   0   1   0.0       14.92129228450524      57.539789324595276      38.446463384665499
   316   0   1   0.0      15.667220847562275      58.774739909755809      38.434027670889591
   317   0   1   0.0      14.935859115977708      60.057928309688052      38.312330747963514
   318   0   1   0.0      15.671869398109694      61.320671557691682      38.316110760914121
   319   0   1   0.0      14.891090166259568      62.484506907700997      38.138899893980401