LAMMPS data file via write_data, version 4 Feb 2025, timestep = 50000, units = metal

14640 atoms
3 atom types

0 154.00799999999998 xlo xhi
0 148.2 ylo yhi
0 151.07609208607428 zlo zhi

Masses

1 12.01099999691024
2 1.007999999740698
3 15.99899999588435

Atoms # full

8003 0 1 0 3.040123495394757 3.337508608779245 33.16380643320336 1 0 0
7941 0 1 0 2.9739282159153984 0.840584426126919 33.207386881793155 1 0 0
8002 0 1 0 3.7188789833285227 2.1104781861652673 33.27160365418479 1 0 0
7992 0 1 0 1.609611445934227 3.312555719798585 33.13538675279494 1 0 0
7940 0 1 0 1.5687654103367938 0.8501066131911476 33.28981758831516 1 0 0
7991 0 1 0 0.870539222573714 2.0828039625798747 33.189108552094545 1 0 0
8004 0 1 0 3.7831268813186893 4.549620454439026 33.06922992230932 1 0 0
7993 0 1 0 0.9067678363986177 4.54990940582008 32.99644722603854 1 0 0
8011 0 1 0 5.116236345707413 2.076886240967226 33.20901816227584 1 0 0
7960 0 1 0 5.816007136720824 0.8526809542492509 33.13402171434643 1 0 0
8012 0 1 0 5.895987549200619 3.2749255977075435 33.02592433844931 1 0 0
8022 0 1 0 7.965454392264991 2.064521031900257 33.00500694326283 1 0 0
8023 0 1 0 7.284951770850689 3.3098168072333873 32.97514899721439 1 0 0
7961 0 1 0 7.240278254486606 0.8519381264414518 33.04085220617141 1 0 0
8013 0 1 0 5.203527132294303 4.548162956294606 33.018681528814426 1 0 0
8024 0 1 0 8.041795935878083 4.5193862922484325 32.73109717478076 1 0 0
8031 0 1 0 9.443501488010197 2.0545583049883938 32.83475983947587 1 0 0
8032 0 1 0 10.115396666989788 3.260995194655597 32.579298971694946 1 0 0
7980 0 1 0 10.150896631904198 0.828976065367243 32.85759173025263 1 0 0
62 0 1 0 12.254615012670076 2.0344540875245305 32.67247155972244 0 0 0
7921 0 1 0 11.572154387210055 0.8106914578715084 32.70719891849207 1 0 0
7983 0 1 0 11.507205953480296 3.258163142398823 32.54979190096444 1 0 0
8033 0 1 0 9.435276319615369 4.5021337274834625 32.56950993973856 1 0 0
64 0 1 0 12.261241524782907 4.51430507559573 32.47870209044812 0 0 0
8006 0 1 0 3.7588411068413956 7.050343761943456 32.80045747518827 1 0 0
8005 0 1 0 3.057696093987726 5.8415652396625015 32.9693011448265 1 0 0
8007 0 1 0 3.0343499731334513 8.252024027651384 32.620397606651515 1 0 0
7996 0 1 0 1.5555550356173022 8.285107588563514 32.508288770613454 1 0 0
7994 0 1 0 1.5907361351190188 5.830427134863209 32.8348409212094 1 0 0
7995 0 1 0 0.8257374599969484 7.044334423724629 32.64998708123072 1 0 0
8014 0 1 0 5.896688617627342 5.798526570810169 32.8906522953421 1 0 0
8025 0 1 0 7.324371798466705 5.731666674514147 32.7789467577393 1 0 0
8026 0 1 0 7.929468586460369 6.955259670581852 32.62386477856244 1 0 0
8027 0 1 0 7.288701246390861 8.234214106269393 32.68123471475873 1 0 0
8015 0 1 0 5.166258518905848 7.037122416416494 32.877780465675905 1 0 0
8016 0 1 0 5.910597495535501 8.277709264823073 32.81311955745269 1 0 0
8035 0 1 0 9.383686938156645 6.994238485323043 32.378664228953824 1 0 0
8034 0 1 0 10.06082615655316 5.77007063654748 32.408336639066846 1 0 0
8036 0 1 0 10.036694987448652 8.254794792544917 32.22982985513944 1 0 0
7987 0 1 0 11.51219039295785 8.207229397973608 32.19005510040006 1 0 0
66 0 1 0 12.221142867047961 7.0052481884521445 32.32043291390855 0 0 0
7985 0 1 0 11.519249315236868 5.755250019832768 32.37036797199071 1 0 0
8000 0 1 0 1.5884634157110984 13.152992712779017 32.244239948098894 1 0 0
8010 0 1 0 3.6737040142493975 12.025596387939391 32.40126981303673 1 0 0
8008 0 1 0 3.68423414828151 9.5339402038282 32.59835772997104 1 0 0
8001 0 1 0 2.9789864353876574 13.226239024728638 32.245268234017246 1 0 0
8009 0 1 0 2.9988842563374343 10.783473534912709 32.50808296363976 1 0 0
7999 0 1 0 0.9147868928597698 11.939317243304588 32.17962134079203 1 0 0
7998 0 1 0 1.5776968856751803 10.719472183693298 32.34974312670301 1 0 0
7997 0 1 0 0.8459367078793083 9.506405784417206 32.38083497191182 1 0 0
8028 0 1 0 7.95019922728337 9.487875718439003 32.52736836726211 1 0 0
8030 0 1 0 8.000793261805589 11.956655933374252 32.250272999872415 1 0 0
8017 0 1 0 5.1516182917259945 9.521258970467336 32.71554366187993 1 0 0
8019 0 1 0 5.085713949187441 11.980707712721198 32.36624173183195 1 0 0
8018 0 1 0 5.81645288697697 10.734331217794022 32.582837618903106 1 0 0
8020 0 1 0 5.796744372098142 13.173307370525135 32.149702242049685 1 0 0
8029 0 1 0 7.262253306232196 10.742716413722253 32.491353529400094 1 0 0
8021 0 1 0 7.232415229836041 13.178383300070191 32.05339373443624 1 0 0
8039 0 1 0 9.427573505185048 12.000535460163611 32.18651262646198 1 0 0
8037 0 1 0 9.351201470837625 9.494071335838548 32.24505933857566 1 0 0
8038 0 1 0 10.085639829724586 10.710756397654874 32.166036312490334 1 0 0
8040 0 1 0 10.094663851321402 13.21263566509962 31.93022601747124 1 0 0
70 0 1 0 12.23946577756264 11.90656738246169 31.993535946668235 0 0 0
68 0 1 0 12.238905865348412 9.432667028962125 32.145912224000924 0 0 0
7989 0 1 0 11.547058897787446 10.673409531020486 32.09810735277747 1 0 0
7981 0 1 0 11.514536737815419 13.153198369445759 31.839821460424332 1 0 0
8063 0 1 0 3.0182188566141828 15.640170046752573 32.134987192542525 1 0 0
8064 0 1 0 3.6943139194903583 16.852509778566933 31.938576684853935 1 0 0
8052 0 1 0 1.5907258963094995 15.618614223679096 32.12140010283353 1 0 0
8062 0 1 0 3.7053066788869007 14.390818619352666 32.21247964238287 1 0 0
8051 0 1 0 0.8972386109551213 14.411490920676034 32.13364237754769 1 0 0
8054 0 1 0 1.5506414929954364 18.092401226135202 32.07383207215222 1 0 0
8065 0 1 0 2.9480544004482048 18.106845266746404 31.997313654968355 1 0 0
8053 0 1 0 0.8272448032419185 16.848073867718348 32.01491546155105 1 0 0
8074 0 1 0 5.752787880645523 18.150106494214214 31.84775025715708 1 0 0
8084 0 1 0 7.901548130210168 16.91002942179753 31.93611448096019 1 0 0
8085 0 1 0 7.142365341000163 18.151579055722504 31.783576112843388 1 0 0
8082 0 1 0 7.950018014137488 14.427844252214923 31.98586453755835 1 0 0
8073 0 1 0 5.076818079913982 16.858905380390844 31.88303739109297 1 0 0
8071 0 1 0 5.087339694057573 14.432832795668345 32.19538035347204 1 0 0
8072 0 1 0 5.806367286369589 15.651663045786746 31.961436664511126 1 0 0
8083 0 1 0 7.215800307590254 15.666034594194269 31.978954134841228 1 0 0
8093 0 1 0 9.365832256776478 16.874902668275922 31.967614941471187 1 0 0
8045 0 1 0 11.522535824391037 18.074765982050423 31.89057321809684 1 0 0
8094 0 1 0 10.061360346249451 18.089545652463933 31.91013261910887 1 0 0
8092 0 1 0 10.04301605176776 15.637913124955706 31.864533530502925 1 0 0
124 0 1 0 12.201805659549944 16.844833896406755 31.81716029481401 0 0 0
8043 0 1 0 11.485883805563946 15.612534045174213 31.794210963156242 1 0 0
122 0 1 0 12.173256077160492 14.363591586232136 31.756160466075173 0 0 0
8091 0 1 0 9.363148544003526 14.403442709321538 31.956741500298442 1 0 0
8068 0 1 0 3.6568129703474965 21.88141412197396 31.794153636272316 1 0 0
8066 0 1 0 3.604285057932796 19.35730632423213 31.84314982047485 1 0 0
8067 0 1 0 2.920195256919584 20.64837277640151 31.936722786122832 1 0 0
8055 0 1 0 0.8170528235125978 19.333767254214166 32.0029132567031 1 0 0
8057 0 1 0 0.8365929022678809 21.845810682454033 31.88123928906973 1 0 0
8069 0 1 0 3.0024175789962215 23.092126986896176 31.779034024323657 1 0 0
8058 0 1 0 1.5995386660193822 23.062490929044895 31.707952309713722 1 0 0
8056 0 1 0 1.5019100246349506 20.61096299837582 31.997861755867245 1 0 0
8077 0 1 0 5.10845601558389 21.86042967173981 31.77587453791824 1 0 0
8075 0 1 0 5.036214700909889 19.349836081381127 31.8736190078852 1 0 0
8087 0 1 0 7.219292010065745 20.56561908471008 31.850268349960935 1 0 0
8088 0 1 0 7.907458855621947 21.804248550117116 31.91285354238272 1 0 0
8086 0 1 0 7.947287233887927 19.335883687883925 31.91668383711403 1 0 0
8089 0 1 0 7.209594269322141 23.067558861591344 31.89091478748718 1 0 0
8076 0 1 0 5.7586903340263484 20.571591424126783 31.855209507926467 1 0 0
8078 0 1 0 5.76686936899749 23.0446196611936 31.85007473402797 1 0 0
8095 0 1 0 9.399080859637849 19.33447515816136 31.902750136077795 1 0 0
8097 0 1 0 9.358266499651382 21.795047244894835 32.052931079003834 1 0 0
8096 0 1 0 10.067106237715214 20.608152775109442 32.027125335829325 1 0 0
126 0 1 0 12.216999439509127 19.384061630266928 31.970234765378812 0 0 0
128 0 1 0 12.287627231364134 21.80142506555028 32.12107548940416 0 0 0
8047 0 1 0 11.532677633038553 20.60861716860953 32.08237456470212 1 0 0
8098 0 1 0 10.112476691674036 23.055680657917723 32.11077425554445 1 0 0
8049 0 1 0 11.562823359833118 23.04249251295888 32.16972036518523 1 0 0
8061 0 1 0 3.0518044993356694 25.54957571997217 31.785063609918012 1 0 0
8122 0 1 0 3.74409264469223 26.724889743583287 31.81633876056213 1 0 0
8070 0 1 0 3.7355459387213976 24.302413866093623 31.815035063019053 1 0 0
8060 0 1 0 1.6405205750012162 25.54540901181626 31.6042198054679 1 0 0
8111 0 1 0 0.9182851196133631 26.748604243828613 31.534681367656184 1 0 0
8059 0 1 0 0.8854451797077681 24.315055110807094 31.53187567088169 1 0 0
8090 0 1 0 7.969325192178429 24.27568154548561 31.912966771131607 1 0 0
8142 0 1 0 8.014381297287569 26.78914189878482 31.819018465667018 1 0 0
8081 0 1 0 7.283889897187359 25.557296785877686 31.88068176749961 1 0 0
8079 0 1 0 5.142421284238962 24.305127124479238 31.86224942532102 1 0 0
8131 0 1 0 5.219321137910167 26.72860544650396 31.847725649112746 1 0 0
8080 0 1 0 5.897120722671466 25.544691800311494 31.92801842782985 1 0 0
8099 0 1 0 9.405883520652042 24.260140054487103 32.05205101387072 1 0 0
8151 0 1 0 9.446000975437672 26.72076872148496 31.9864682343101 1 0 0
8100 0 1 0 10.09861277198506 25.506472469276368 32.084890732654884 1 0 0
130 0 1 0 12.2663146811862 24.276521139684945 32.28481755901036 0 0 0
8041 0 1 0 11.557420006825785 25.53305399045413 32.20173411777921 1 0 0
182 0 1 0 12.263824257999623 26.7348863722355 32.19542773959635 0 0 0
8115 0 1 0 0.9062530679688394 31.66994447346637 31.53706842674844 1 0 0
8125 0 1 0 3.0861924683065287 30.455371118914716 31.655248564806683 1 0 0
8114 0 1 0 1.6361286657251441 30.434836776309705 31.585280870374714 1 0 0
8123 0 1 0 3.0882655150354807 27.971202272626147 31.738531976045838 1 0 0
8124 0 1 0 3.801265079166975 29.202987616508683 31.678260746512453 1 0 0
8126 0 1 0 3.718998892989772 31.692855692640258 31.79844258786262 1 0 0
8112 0 1 0 1.6978928063965892 27.951006017606904 31.549059539769953 1 0 0
8113 0 1 0 0.9131312643798637 29.167603723899582 31.53053980739522 1 0 0
8145 0 1 0 7.359344396731022 30.491914051000332 31.886685238146683 1 0 0
8146 0 1 0 8.005291155825164 31.717824947064532 31.973079102494122 1 0 0
8144 0 1 0 7.999515344641327 29.230328182780596 31.93034927774696 1 0 0
8143 0 1 0 7.293508363218081 27.993124116622738 31.83456461294664 1 0 0
8133 0 1 0 5.201999513137754 29.212931847979235 31.832114590282117 1 0 0
8135 0 1 0 5.153222677042866 31.704284417302393 31.83982997614396 1 0 0
8132 0 1 0 5.894850403133946 27.971922346069157 31.867170767481287 1 0 0
8134 0 1 0 5.9286530272763045 30.450343172012172 31.81252087576485 1 0 0
8153 0 1 0 9.47617371976189 29.24230291846344 31.991291043900823 1 0 0
8155 0 1 0 9.42796253233515 31.70952210562571 32.009260382293604 1 0 0
8154 0 1 0 10.17740713209706 30.47168253320992 32.068392284753266 1 0 0
8152 0 1 0 10.151363248731489 28.014835354524763 32.0440234610588 1 0 0
186 0 1 0 12.295222053610575 31.66950596704567 32.30009733670619 0 0 0
8103 0 1 0 11.591782775304852 28.0271402674326 32.14225119214899 1 0 0
184 0 1 0 12.3293550147879 29.20628396019293 32.18581618042905 0 0 0
8105 0 1 0 11.572372742751279 30.453712122603 32.21504384509738 1 0 0
8118 0 1 0 1.5890100380251864 35.34085155412469 31.89563353722753 1 0 0
8127 0 1 0 3.0250437004581494 32.92964940510227 31.81000935053382 1 0 0
8128 0 1 0 3.762962429802313 34.144359426287586 31.953960198803202 1 0 0
8129 0 1 0 3.022503110886534 35.38093651505917 32.073919784185904 1 0 0
8116 0 1 0 1.5788747915624572 32.89575855914224 31.685468255460034 1 0 0
8130 0 1 0 3.7061827361564617 36.62496141386464 32.123078068152644 1 0 0
8119 0 1 0 0.8680262923214316 36.56273990916504 31.818393653068885 1 0 0
8117 0 1 0 0.9102477573537564 34.138052299957586 31.74644302324275 1 0 0
8148 0 1 0 7.984049173432522 34.18541200361515 31.938631311880386 1 0 0
8147 0 1 0 7.253569560561606 32.94284005138625 31.98795185370815 1 0 0
8150 0 1 0 8.005937784052374 36.64960171461749 32.264271190723214 1 0 0
8137 0 1 0 5.151830269753142 34.14250871046799 31.9725478790939 1 0 0
8139 0 1 0 5.10760430097986 36.60297985047229 32.149738139137455 1 0 0
8149 0 1 0 7.274764229850645 35.423849406223944 32.026310184367496 1 0 0
8136 0 1 0 5.848420988663753 32.90947218155577 31.878752103909992 1 0 0
8138 0 1 0 5.831784728259793 35.35661539662698 32.061366670391614 1 0 0
8156 0 1 0 10.137744502575961 32.96624918040786 32.108958687907865 1 0 0
8107 0 1 0 11.573843842026402 32.95862216489231 32.1813522105238 1 0 0
8157 0 1 0 9.398492924838433 34.191326303670955 32.105251143113236 1 0 0
190 0 1 0 12.280521875542174 36.67581444977213 32.389798877206346 0 0 0
188 0 1 0 12.278423730672129 34.17126719013553 32.28462434876196 0 0 0
8109 0 1 0 11.562406131420158 35.4534494087233 32.26087472601682 1 0 0
8158 0 1 0 10.135610433905118 35.429863025388315 32.19998753558482 1 0 0
8159 0 1 0 9.476737245320273 36.64390222668401 32.29497791648261 1 0 0
8120 0 1 0 1.5916279084264535 37.828082559712584 31.994599590030603 1 0 0
8121 0 1 0 2.999132993799824 37.864293668283096 32.09695932741805 1 0 0
8183 0 1 0 3.0308728891604133 40.337441958082024 32.031765680667 1 0 0
8182 0 1 0 3.7623742928670354 39.121006255080495 32.03601024069524 1 0 0
8172 0 1 0 1.648650710019621 40.344134158990805 31.92453457500538 1 0 0
8184 0 1 0 3.7992681237008603 41.55360723229719 32.18387372071731 1 0 0
8171 0 1 0 0.9030630440873347 39.09560183893473 31.860797352852885 1 0 0
8173 0 1 0 0.8954617381062858 41.57993007354074 31.831945962302683 1 0 0
8202 0 1 0 8.042737605972373 39.12911194855705 32.402422175709034 1 0 0
8203 0 1 0 7.278434455655631 40.34199787703763 32.4218826853569 1 0 0
8204 0 1 0 8.028180831332493 41.534274843149774 32.550718143126794 1 0 0
8191 0 1 0 5.16513909455872 39.14617976029345 32.193630649538484 1 0 0
8140 0 1 0 5.861733935688212 37.87840447501991 32.21968010250542 1 0 0
8141 0 1 0 7.268962727962179 37.91172678667555 32.259652606042536 1 0 0
8192 0 1 0 5.860064710534431 40.328174081008825 32.31110759996691 1 0 0
8193 0 1 0 5.1849799390063955 41.605680437617075 32.294595574172625 1 0 0
8211 0 1 0 9.423144448005246 39.097262711892995 32.49068422357232 1 0 0
8160 0 1 0 10.156672211266738 37.85822242101531 32.35290883459441 1 0 0
8212 0 1 0 10.177465226281425 40.291690090280845 32.601462140190584 1 0 0
8101 0 1 0 11.578164614955426 37.89382345488472 32.38484392834778 1 0 0
8213 0 1 0 9.464061625031851 41.52907736416038 32.66243390114048 1 0 0
242 0 1 0 12.346042514478212 39.09702242185572 32.5244677135173 0 0 0
8163 0 1 0 11.613510461866529 40.3178860277271 32.61680523957186 1 0 0
244 0 1 0 12.351489020695556 41.566822770685135 32.702622014527726 0 0 0
8187 0 1 0 3.0567670001751734 45.247624023581984 32.23169728002437 1 0 0
8176 0 1 0 1.6627064314806732 45.25138446252822 32.166108052712524 1 0 0
8185 0 1 0 3.0493855849037392 42.772899982069134 32.220297625502724 1 0 0
8186 0 1 0 3.787362669464334 43.99438310002831 32.39235308151916 1 0 0
8174 0 1 0 1.6047269586982404 42.77965559444027 31.93375976000071 1 0 0
8175 0 1 0 0.926433134270918 44.00219827844843 32.081175816636524 1 0 0
8195 0 1 0 5.200988032759737 44.02707150425123 32.59021584663901 1 0 0
8196 0 1 0 5.942413143588974 45.25053392392786 32.5965908397476 1 0 0
8194 0 1 0 5.9238416699120116 42.79808562095614 32.48313710381944 1 0 0
8205 0 1 0 7.338078877339489 42.77422458262257 32.63598576597398 1 0 0
8206 0 1 0 8.055118867653242 43.98885821396594 32.701387967769975 1 0 0
8207 0 1 0 7.353655701922102 45.17783228949611 32.69053803273171 1 0 0
8215 0 1 0 9.494906472623635 44.0097208833759 32.7495129351931 1 0 0
8214 0 1 0 10.202077088737196 42.73877967755231 32.840428685929616 1 0 0
8216 0 1 0 10.158237909397073 45.19326733000895 32.61458248623686 1 0 0
246 0 1 0 12.318163931320106 44.01658552350931 32.95383474656638 0 0 0
8165 0 1 0 11.627166851633454 42.7585799151575 32.826890930353066 1 0 0
8167 0 1 0 11.596215567952498 45.232848048008194 32.80893288077651 1 0 0
8180 0 1 0 1.5860350148061926 50.241470912842814 32.42168474690523 1 0 0
8178 0 1 0 1.6386087382905592 47.80679939337273 32.36330330733793 1 0 0
8188 0 1 0 3.7629305181961867 46.50456284692658 32.412324722644236 1 0 0
8189 0 1 0 3.0438593777940968 47.736436338251906 32.36543820263608 1 0 0
8190 0 1 0 3.7654811470698935 48.981979585109436 32.502623747012684 1 0 0
8181 0 1 0 3.0393468600409457 50.23211414897139 32.50582430921238 1 0 0
8179 0 1 0 0.8773574524156036 48.9992776379762 32.38863032722483 1 0 0
8177 0 1 0 0.9570619375704452 46.48534914506481 32.20099479323128 1 0 0
8199 0 1 0 5.178303055150234 48.96852078062385 32.48314881576798 1 0 0
8197 0 1 0 5.202619202267883 46.45726924185938 32.49231424155289 1 0 0
8198 0 1 0 5.878010858013792 47.703473169896654 32.473141668196924 1 0 0
8200 0 1 0 5.9247891029748025 50.14809593984207 32.58828996475907 1 0 0
8201 0 1 0 7.3568269348607345 50.14335791659358 32.541985242967066 1 0 0
8208 0 1 0 8.02158549770309 46.41700525426277 32.63803606446682 1 0 0
8209 0 1 0 7.2682240780641525 47.6370932080322 32.620854462226994 1 0 0
8210 0 1 0 8.031142270067063 48.881525998493636 32.51878389336213 1 0 0
8217 0 1 0 9.445166058440266 46.43220135215015 32.57475172241383 1 0 0
8219 0 1 0 9.524304472596391 48.93293852396384 32.59217798956634 1 0 0
8218 0 1 0 10.169891379325996 47.67383775869391 32.750858098006674 1 0 0
8220 0 1 0 10.235828299877726 50.14924234082776 32.69048162188459 1 0 0
250 0 1 0 12.36797859889715 48.9837842044491 32.941523370404894 0 0 0
248 0 1 0 12.308879520499165 46.534007871148276 32.92194971754701 0 0 0
8169 0 1 0 11.604028643912857 47.7200539769517 32.8856595470585 1 0 0
8161 0 1 0 11.67079792410906 50.186340127428466 32.85755866859656 1 0 0
8232 0 1 0 1.696698854614335 52.758920154205946 32.264487260278706 1 0 0
8242 0 1 0 3.7822060338827908 51.4425503185906 32.41606367156987 1 0 0
8243 0 1 0 3.1135878877892798 52.75175307780583 32.231023556021576 1 0 0
8244 0 1 0 3.881192426479191 53.94791947631123 32.25284636054112 1 0 0
8234 0 1 0 1.677619572172386 55.183581182481575 32.12399582606755 1 0 0
8245 0 1 0 3.143899686265769 55.16991301773204 32.07956009774228 1 0 0
8231 0 1 0 0.9278385422533838 51.51537714502641 32.32253122792884 1 0 0
8233 0 1 0 0.9658461042213811 53.95565335565298 32.284686567074914 1 0 0
8251 0 1 0 5.233294030962641 51.47485343135306 32.442369597686586 1 0 0
8253 0 1 0 5.271261608109029 53.93948814326785 32.335421545727904 1 0 0
8254 0 1 0 5.947784352117825 55.15958067176549 32.27198265514561 1 0 0
8252 0 1 0 5.981365334515766 52.6988003468661 32.472010728538145 1 0 0
8264 0 1 0 8.09370318781777 53.932604031551136 32.65265931642422 1 0 0
8262 0 1 0 8.081872661871728 51.42360429723335 32.620522054230605 1 0 0
8263 0 1 0 7.384291096491131 52.66402708920779 32.63807274760641 1 0 0
8265 0 1 0 7.390349550638277 55.17929071877037 32.43890528995304 1 0 0
8271 0 1 0 9.484285924672974 51.41684719799076 32.75558835705486 1 0 0
8273 0 1 0 9.520335492609002 53.919575583493476 32.866888737292385 1 0 0
304 0 1 0 12.36248840350536 53.90207685324241 33.135982912711526 0 0 0
8272 0 1 0 10.24587797123123 52.616642108904244 32.94323431774467 1 0 0
8223 0 1 0 11.660933859104333 52.640470851974364 32.936180459326984 1 0 0
8225 0 1 0 11.68575291073424 55.16061217475625 33.03094081286031 1 0 0
8274 0 1 0 10.244663541452914 55.14701017345378 32.83086224658001 1 0 0
302 0 1 0 12.38724251754367 51.42548299634507 32.978038413088036 0 0 0
8247 0 1 0 3.119112311057531 57.65148950126969 31.802290860208004 1 0 0
8246 0 1 0 3.836055350593469 56.39180317804299 31.919661647616365 1 0 0
8248 0 1 0 3.8657126110673827 58.902122614018175 31.960372265389093 1 0 0
8236 0 1 0 1.7283786104652457 57.67203511961983 31.887042952536508 1 0 0
8235 0 1 0 0.998158320461626 56.418312145765896 32.026679473208596 1 0 0
8237 0 1 0 1.016659380090387 58.86593487606433 31.970581332675522 1 0 0
8249 0 1 0 3.1548313465928186 60.139313047063375 31.943683814296023 1 0 0
8238 0 1 0 1.7008888861860458 60.12075663243451 31.96101140663413 1 0 0
8257 0 1 0 5.3372059033088295 58.912516840972906 31.97212276586352 1 0 0
8255 0 1 0 5.2143194894388465 56.40776179915799 32.05511656262162 1 0 0
8256 0 1 0 5.981666248625865 57.62247795288055 32.0553396549651 1 0 0
8266 0 1 0 8.149398886780002 56.38530735126154 32.468514376341545 1 0 0
8267 0 1 0 7.362891292671232 57.626724998304255 32.28385541568585 1 0 0
8268 0 1 0 8.157102196743073 58.883536666064245 32.2544397496358 1 0 0
8258 0 1 0 6.065079694657455 60.148027166276016 32.08658663113548 1 0 0
8269 0 1 0 7.480434835611944 60.12948097104421 32.19385502349081 1 0 0
8277 0 1 0 9.562422109803917 58.83447575988196 32.466173274470144 1 0 0
8275 0 1 0 9.548939274972211 56.391069892512604 32.67269332317635 1 0 0
8276 0 1 0 10.295354471478246 57.61558419654103 32.67923700543102 1 0 0
8227 0 1 0 11.644112308155647 57.62767848421422 32.931200382163006 1 0 0
308 0 1 0 12.350849124747642 58.86076249165393 32.98921860811983 0 0 0
306 0 1 0 12.355180060715075 56.40103447539026 33.03911168695365 0 0 0
8229 0 1 0 11.674004896846649 60.054926428846436 32.640936040200536 1 0 0
8278 0 1 0 10.315229242197034 60.05417724429396 32.42511539238796 1 0 0
8250 0 1 0 3.8761556316141124 61.3667043680191 31.890604392498386 1 0 0
8239 0 1 0 1.0006644280547121 61.34936954921194 31.953970513389972 1 0 0
8291 0 1 0 0.9880054080312219 63.77679709763153 31.997568677966633 1 0 0
8240 0 1 0 1.7067417348097633 62.56022592225079 32.01247016491486 1 0 0
8241 0 1 0 3.1095964745964015 62.59335598550847 31.990695456417477 1 0 0
8302 0 1 0 3.852078970702964 63.80127926597276 32.195160829941756 1 0 0
8311 0 1 0 5.259349742337212 63.799156067221126 32.20692731072614 1 0 0
8259 0 1 0 5.301440797767501 61.332525610633404 32.025193793705036 1 0 0
8260 0 1 0 5.983862889439868 62.55882306562103 32.170410175474515 1 0 0
8322 0 1 0 8.08905414359066 63.7949707027577 32.223262820256544 1 0 0
8261 0 1 0 7.425203697670431 62.572800450172416 32.129971473000765 1 0 0
8270 0 1 0 8.161583124748876 61.33560254594031 32.23349148242493 1 0 0
8331 0 1 0 9.524824156547632 63.80084794476203 32.20736928104931 1 0 0
8279 0 1 0 9.578089118068165 61.3166696073924 32.272467986948314 1 0 0
310 0 1 0 12.389657718647435 61.33085154981053 32.69472405318458 0 0 0
8280 0 1 0 10.27605950310002 62.576714271068354 32.219869595434304 1 0 0
8221 0 1 0 11.67896460966209 62.55562237505706 32.54669382605352 1 0 0
362 0 1 0 12.403565001500185 63.80450096716919 32.557766248155964 0 0 0
8292 0 1 0 1.6408971067415865 65.05222160247179 32.206137073141825 1 0 0
8303 0 1 0 3.1045077043943317 65.01017500072382 32.24937826841707 1 0 0
8304 0 1 0 3.7985886586786717 66.22747058437207 32.32347667491111 1 0 0
8305 0 1 0 3.0362306763125226 67.47538983600948 32.451774816059576 1 0 0
8306 0 1 0 3.791589399252855 68.7491018005815 32.498475769756084 1 0 0
8294 0 1 0 1.6322300045190397 67.49668431539301 32.34195623285726 1 0 0
8293 0 1 0 0.8944716017655512 66.2367533411723 32.24192155611303 1 0 0
8295 0 1 0 0.8837243322313489 68.66537348510144 32.31316601069787 1 0 0
8313 0 1 0 5.2267588383163215 66.2849067680905 32.332496974337936 1 0 0
8315 0 1 0 5.229775605083457 68.72737134009245 32.5984822585145 1 0 0
8314 0 1 0 5.902622570329974 67.50222666567291 32.46373326944752 1 0 0
8312 0 1 0 5.938616211627377 65.04823604397527 32.26709815855763 1 0 0
8323 0 1 0 7.370212755800202 65.08015726365285 32.19856010930527 1 0 0
8324 0 1 0 8.040311531435771 66.31644719516858 32.220619154540856 1 0 0
8325 0 1 0 7.346155355083788 67.55149879471442 32.33252831987938 1 0 0
8326 0 1 0 8.019687298626433 68.78447519012526 32.46079003605813 1 0 0
8335 0 1 0 9.470075584842236 68.74864060836592 32.44596969978697 1 0 0
8333 0 1 0 9.486086753419835 66.27433660736546 32.246979725905014 1 0 0
364 0 1 0 12.32281622425849 66.30689941277106 32.53672582503576 0 0 0
8332 0 1 0 10.220456493667944 65.03828944221348 32.22885529529657 1 0 0
8334 0 1 0 10.161438265289586 67.50332559748678 32.31863570198939 1 0 0
8283 0 1 0 11.61419465487271 65.05144237941585 32.43500786805508 1 0 0
8285 0 1 0 11.612102780823266 67.51760000727488 32.423293070249706 1 0 0
366 0 1 0 12.336513420239065 68.73828448528938 32.54479094524665 0 0 0
8307 0 1 0 3.0948914953912863 69.99417647589033 32.57328172422671 1 0 0
8308 0 1 0 3.7428707420108704 71.23299193910496 32.83519282394938 1 0 0
8309 0 1 0 3.0678059686326242 72.46772126283547 32.864027336310784 1 0 0
8298 0 1 0 1.6471972528052359 72.42158943580566 32.7042930174956 1 0 0
8296 0 1 0 1.6042931131814624 69.94909440679209 32.431593167677754 1 0 0
8310 0 1 0 3.7848059732479653 73.66384571611859 32.95431698814011 1 0 0
8297 0 1 0 0.9306562752002838 71.1969326122024 32.54072664134417 1 0 0
8299 0 1 0 0.9199861391764078 73.65725315936969 32.69080525422943 1 0 0
8330 0 1 0 8.066740897069208 73.64984563591574 32.9363952092537 1 0 0
8317 0 1 0 5.208695829393449 71.16696914921594 32.91711340046773 1 0 0
8319 0 1 0 5.240175086077622 73.68181175192764 33.010780961428026 1 0 0
8328 0 1 0 8.033228755398587 71.18576920029098 32.89405731827583 1 0 0
8316 0 1 0 5.902832304320373 69.94452540413081 32.724542052104546 1 0 0
8318 0 1 0 5.919496318198466 72.45044056876758 32.97504031277906 1 0 0
8329 0 1 0 7.332976644940964 72.44890383918391 32.96111610907378 1 0 0
8327 0 1 0 7.339242250759013 69.98720982520477 32.73752587244037 1 0 0
8338 0 1 0 10.212565859739506 72.48286196736528 32.837045067876176 1 0 0
8287 0 1 0 11.596652506697268 69.96269573447813 32.61254389299411 1 0 0
8336 0 1 0 10.149057810971964 69.96374228385018 32.57525998753641 1 0 0
8337 0 1 0 9.490520432141722 71.19821173895915 32.75393405255505 1 0 0
8339 0 1 0 9.503826424995474 73.6580574140208 32.97381551747641 1 0 0
370 0 1 0 12.37943718802224 73.66801227684505 32.90161328049596 0 0 0
8289 0 1 0 11.630431041987672 72.4856143170056 32.837367434413906 1 0 0
368 0 1 0 12.316996323886082 71.18289187802277 32.725390258877134 0 0 0
8301 0 1 0 3.011483237032083 74.88545241926347 32.98938418612052 1 0 0
8362 0 1 0 3.7651917677155113 76.137669838392 33.041888876183705 1 0 0
8363 0 1 0 3.070069470792044 77.39075304101705 33.08688638031464 1 0 0
8300 0 1 0 1.5867318354630016 74.8918493594332 32.89294679878144 1 0 0
8352 0 1 0 1.638782297202655 77.38621250348065 32.963614088810104 1 0 0
8351 0 1 0 0.9062958764069745 76.1517890256727 32.76744917459297 1 0 0
8353 0 1 0 0.9228566087590024 78.63648096999108 32.921540435565376 1 0 0
8364 0 1 0 3.793111206538586 78.59559789507075 33.21445801903573 1 0 0
8371 0 1 0 5.202386000381937 76.14060186831436 33.086463939325135 1 0 0
8320 0 1 0 5.956136604785122 74.89841651084903 33.10237619109379 1 0 0
8372 0 1 0 5.918408670579951 77.36308957938347 33.14943250377946 1 0 0
8383 0 1 0 7.4018486987233985 77.37734860199525 33.02596962238438 1 0 0
8382 0 1 0 8.091596285349139 76.14139414368492 32.92060684603294 1 0 0
8321 0 1 0 7.381993222887814 74.89982223911544 32.95351354550818 1 0 0
8373 0 1 0 5.248350898854508 78.62277661148838 33.23894927737313 1 0 0
8384 0 1 0 8.082074630255818 78.5932890346329 33.125695316311536 1 0 0
8391 0 1 0 9.508040037701651 76.13249067893638 32.99997484866633 1 0 0
8392 0 1 0 10.236628615742061 77.34956381810264 33.008501006041605 1 0 0
422 0 1 0 12.349004842177223 76.10007004206288 33.19136204231424 0 0 0
8281 0 1 0 11.664327766531969 74.89891705996102 33.1222338531372 1 0 0
8343 0 1 0 11.655852305913504 77.36478520427136 33.23649267760899 1 0 0
424 0 1 0 12.342579240973702 78.63355736403977 33.371129594745554 0 0 0
8393 0 1 0 9.52683448557737 78.55949315335022 33.118216083265075 1 0 0
8340 0 1 0 10.22215647433527 74.90281516651596 33.087549697723574 1 0 0
8354 0 1 0 1.6465574913011884 79.87116392642815 33.2083009952128 1 0 0
8365 0 1 0 3.099016494592983 79.85091013869379 33.33292404565631 1 0 0
8366 0 1 0 3.7759464772974587 81.1044291390716 33.45436875522126 1 0 0
8367 0 1 0 3.0389375312301823 82.27670187808978 33.573744356102715 1 0 0
8356 0 1 0 1.608792212243339 82.31282691875174 33.55653205057106 1 0 0
8355 0 1 0 0.9447187262420084 81.06410065462767 33.24962393161693 1 0 0
8375 0 1 0 5.214069069536556 81.05879077277474 33.413787527553865 1 0 0
8374 0 1 0 5.920643056956149 79.86224514698016 33.24321470612507 1 0 0
8376 0 1 0 5.913862357116962 82.29557586163325 33.496485635055585 1 0 0
8387 0 1 0 7.333480628933259 82.25772336093628 33.530449448751334 1 0 0
8385 0 1 0 7.379343542728148 79.82590787865202 33.25762451004218 1 0 0
8386 0 1 0 8.064651831030863 81.04464031953447 33.4029243917983 1 0 0
8395 0 1 0 9.490415139178698 81.04901328039124 33.43244125061874 1 0 0
8394 0 1 0 10.206140607763714 79.82048299074306 33.36874018523586 1 0 0
8396 0 1 0 10.180315573573322 82.29449394285768 33.5401465947399 1 0 0
426 0 1 0 12.371282535028676 81.0459903031007 33.590664107394005 0 0 0
8345 0 1 0 11.606959435905896 79.8773113647267 33.48153580970747 1 0 0
8347 0 1 0 11.643102844543156 82.33060846361948 33.64732248989289 1 0 0
8368 0 1 0 3.7341291467255013 83.53484216938921 33.5786173997318 1 0 0
8369 0 1 0 3.012779127746887 84.81161169017196 33.601344455767844 1 0 0
8370 0 1 0 3.6675425136698596 86.05428569036098 33.65836928535045 1 0 0
8358 0 1 0 1.556775960693257 84.80169486701254 33.57966674119608 1 0 0
8357 0 1 0 0.8665735732430586 83.50932282161276 33.52838357350311 1 0 0
8359 0 1 0 0.8648237033087905 86.00134096023872 33.508153467094026 1 0 0
8377 0 1 0 5.192551380572085 83.5401042814331 33.582682206706046 1 0 0
8379 0 1 0 5.0920635252562745 86.07202951173132 33.68385502915249 1 0 0
8378 0 1 0 5.861257126603791 84.81508809206225 33.60485934596247 1 0 0
8380 0 1 0 5.832292987472107 87.21788508697509 33.82887036043033 1 0 0
8389 0 1 0 7.281027660692479 84.79974513152665 33.640789226016906 1 0 0