LAMMPS (4 Feb 2025)
OMP_NUM_THREADS environment is not set. Defaulting to 1 thread. (src/comm.cpp:99)
  using 1 OpenMP thread(s) per MPI task
# LAMMPS script for continuing NVT simulation

atom_modify map yes
newton      on

read_restart nvt_prod.restart.1120000
Reading restart file ...
  restart file = 4 Feb 2025, LAMMPS = 4 Feb 2025
  restoring atom style full from restart
  orthogonal box = (0 0 0) to (154.008 148.2 151.07609)
  16 by 8 by 13 MPI processor grid
  pair style symmetrix/mace stores no restart info
  21540 atoms
Finding 1-2 1-3 1-4 neighbors ...
  special bond factors lj:    0        0        0       
  special bond factors coul:  0        0        0       
     0 = max # of 1-2 neighbors
     0 = max # of 1-3 neighbors
     0 = max # of 1-4 neighbors
     1 = max # of special neighbors
  special bonds CPU = 5.042 seconds
  read_restart CPU = 5.274 seconds

pair_style  symmetrix/mace
pair_coeff  * * ../../../../00-common/models/ch2o-dens-inv_swa-1-6-8.json C H O
Loading MACE model from '../../../../00-common/models/ch2o-dens-inv_swa-1-6-8.json' ... success
  mapping LAMMPS type 1 (C) to MACE type 1
  mapping LAMMPS type 2 (H) to MACE type 0
  mapping LAMMPS type 3 (O) to MACE type 2

group graphene type 1
8640 atoms in group graphene
group H2O type 2 3
12900 atoms in group H2O

thermo 1000

######### NVT production for 80 ps #############

dump DUMP1 all atom 100 nvt_prod_14.lammpstrj
timestep 0.001
fix NVT1 graphene nvt temp 300 300 0.1
Resetting global fix info from restart file:
  fix style: nvt, fix ID: NVT1
fix NVT2 H2O nvt temp 300 300 0.1
Resetting global fix info from restart file:
  fix style: nvt, fix ID: NVT2
run 80000
All restart file global fix info was re-assigned
Neighbor list info ...
  update: every = 1 steps, delay = 0 steps, check = yes
  max neighbors/atom: 2000, page size: 100000
  master list distance cutoff = 8
  ghost atom cutoff = 8
  binsize = 4, bins = 39 38 38
  1 neighbor lists, perpetual/occasional/extra = 1 0 0
  (1) pair symmetrix/mace, perpetual
      attributes: full, newton on
      pair build: full/bin
      stencil: full/bin/3d
      bin: standard
Per MPI rank memory allocation (min/avg/max) = 5.961 | 6.296 | 8.288 Mbytes
   Step          Temp          E_pair         E_mol          TotEng         Press     
   1120000   300.19938     -3359752        0             -3358916.2     -98.852149    
   1121000   299.47646     -3359752.6      0             -3358918.8      3.5429136    
   1122000   298.40248     -3359744.4      0             -3358913.6     -52.710528    
   1123000   299.96125     -3359744.4      0             -3358909.3     -40.779009    
   1124000   296.42952     -3359745.4      0             -3358920.1     -25.888602    
   1125000   301.556       -3359742.5      0             -3358902.9      15.061375    
   1126000   300.13878     -3359754        0             -3358918.3      2.9195001    
   1127000   298.95185     -3359754.6      0             -3358922.3      2.1798907    
   1128000   298.36165     -3359752.7      0             -3358922       -0.31531786   
   1129000   300.15784     -3359749.6      0             -3358914        2.7380765    
   1130000   299.61592     -3359755.8      0             -3358921.6     -12.55806     
   1131000   299.44516     -3359747.6      0             -3358913.9     -69.151112    
   1132000   299.50924     -3359750.8      0             -3358916.9     -50.78091     
   1133000   299.58968     -3359745.2      0             -3358911.1     -42.702958    
   1134000   300.66703     -3359738.6      0             -3358901.5     -41.325614    
   1135000   298.10555     -3359748.5      0             -3358918.6     -0.01698758   
   1136000   303.28505     -3359743.2      0             -3358898.8     -11.477568    
   1137000   301.91847     -3359753        0             -3358912.4      8.0890655    
   1138000   300.13498     -3359744.6      0             -3358908.9     -0.32180446   
   1139000   297.52096     -3359752        0             -3358923.6     -47.096647    
   1140000   299.34353     -3359745.8      0             -3358912.4     -15.435804    
   1141000   299.43374     -3359749.6      0             -3358915.9      16.579607    
   1142000   299.19528     -3359739.1      0             -3358906.1     -53.360422    
   1143000   300.27904     -3359747.5      0             -3358911.4     -21.966582    
   1144000   299.69684     -3359744.6      0             -3358910.2     -32.89952     
   1145000   299.17985     -3359745.9      0             -3358912.9     -2.3037137    
   1146000   296.50941     -3359742.9      0             -3358917.4     -43.104221    
   1147000   297.95952     -3359738.4      0             -3358908.8     -2.4747954    
   1148000   301.27747     -3359750        0             -3358911.2     -38.167375    
   1149000   300.48753     -3359747.7      0             -3358911.1     -21.225089    
   1150000   299.96693     -3359740.5      0             -3358905.3     -18.417063    
   1151000   297.27363     -3359744.9      0             -3358917.3     -8.0492384    
   1152000   300.17838     -3359753.5      0             -3358917.8     -25.668262    
   1153000   300.55397     -3359747.8      0             -3358911       -89.201094    
   1154000   299.08386     -3359748.6      0             -3358916       -65.770746    
   1155000   298.40958     -3359746.4      0             -3358915.6     -45.88538     
   1156000   299.22431     -3359737.4      0             -3358904.3     -52.491521    
   1157000   297.99594     -3359744.9      0             -3358915.2     -15.262054    
   1158000   303.49923     -3359742.7      0             -3358897.8     -49.778567    
   1159000   299.5846      -3359740.6      0             -3358906.5     -69.457202    
   1160000   301.64673     -3359742.3      0             -3358902.5     -68.183169    
   1161000   300.44938     -3359755.5      0             -3358919       -1.8401662    
   1162000   300.39075     -3359739.6      0             -3358903.3     -8.1253129    
   1163000   303.7438      -3359748.3      0             -3358902.6      23.815097    
   1164000   301.51562     -3359749.2      0             -3358909.7      5.4093413    
   1165000   301.62144     -3359735.2      0             -3358895.5      0.22292877   
   1166000   298.45031     -3359746.4      0             -3358915.5     -21.091544    
   1167000   298.02985     -3359750        0             -3358920.3     -13.982734    
   1168000   299.97382     -3359746.4      0             -3358911.2     -46.526422    
   1169000   301.08932     -3359747.3      0             -3358909       -45.419318    
   1170000   299.21144     -3359731.9      0             -3358898.8     -44.168386    
   1171000   297.36261     -3359733.4      0             -3358905.5     -23.06074     
   1172000   300.41376     -3359746.4      0             -3358910       -64.566639    
   1173000   299.81117     -3359748.4      0             -3358913.7     -75.908241    
   1174000   300.8604      -3359751.1      0             -3358913.5     -69.224079    
   1175000   299.62042     -3359744.8      0             -3358910.6     -54.334312    
   1176000   297.16088     -3359731.6      0             -3358904.3     -26.641848    
   1177000   298.60457     -3359744.5      0             -3358913.1     -18.793885    
   1178000   299.9748      -3359747.3      0             -3358912.1     -48.809119    
   1179000   300.39339     -3359751        0             -3358914.7     -8.6397809    
   1180000   299.27552     -3359753.3      0             -3358920.1     -14.766857    
   1181000   302.21267     -3359757.7      0             -3358916.3      3.4995052    
   1182000   299.30236     -3359759        0             -3358925.7      26.337627    
   1183000   300.87856     -3359736.7      0             -3358899       -44.912965    
   1184000   299.24394     -3359759.2      0             -3358926       -36.601524    
   1185000   299.41323     -3359750        0             -3358916.4     -61.723785    
   1186000   303.15336     -3359753        0             -3358909       -66.022646    
   1187000   296.08045     -3359751.7      0             -3358927.4     -23.277123    
   1188000   302.22286     -3359745.3      0             -3358903.9     -65.070054    
   1189000   296.04923     -3359745.4      0             -3358921.1     -63.186034    
   1190000   299.93378     -3359751.1      0             -3358916.1     -48.454102    
   1191000   300.02381     -3359743.5      0             -3358908.2     -48.931963    
   1192000   301.46331     -3359752.5      0             -3358913.2     -35.545797    
   1193000   302.44649     -3359759.2      0             -3358917.2      10.479328    
   1194000   297.83605     -3359750.4      0             -3358921.2     -10.153284    
   1195000   300.11675     -3359747.1      0             -3358911.5      12.612498    
   1196000   299.70836     -3359747.3      0             -3358912.9     -41.071136    
   1197000   300.49431     -3359751.9      0             -3358915.3     -7.5971316    
   1198000   296.86799     -3359756.8      0             -3358930.3     -8.0912361    
   1199000   299.2716      -3359740.7      0             -3358907.5      2.7186358    
   1200000   300.09238     -3359753.8      0             -3358918.3     -41.807422    
Loop time of 47001 on 1664 procs for 80000 steps with 21540 atoms

Performance: 0.147 ns/day, 163.198 hours/ns, 1.702 timesteps/s, 36.663 katom-step/s
100.0% CPU use with 1664 MPI tasks x 1 OpenMP threads

MPI task timing breakdown:
Section |  min time  |  avg time  |  max time  |%varavg| %total
---------------------------------------------------------------
Pair    | 0.12463    | 6397.3     | 45968      |15403.8 | 13.61
Bond    | 0.0031655  | 0.0074459  | 0.034442   |   8.0 |  0.00
Neigh   | 0.015979   | 0.23758    | 5.1668     | 154.4 |  0.00
Comm    | 0.56743    | 1742.4     | 20939      |9398.9 |  3.71
Output  | 0.55975    | 6.8176     | 13.695     | 145.5 |  0.01
Modify  | 120.81     | 38845      | 46984      |7728.3 | 82.65
Other   |            | 9.414      |            |       |  0.02

Nlocal:        12.9447 ave         230 max           0 min
Histogram: 1446 21 89 29 19 12 9 6 19 14
Nghost:        132.094 ave        2112 max           0 min
Histogram: 1330 183 35 29 23 27 7 6 10 14
Neighs:              0 ave           0 max           0 min
Histogram: 1664 0 0 0 0 0 0 0 0 0
FullNghs:      1949.83 ave       49899 max           0 min
Histogram: 1484 87 19 21 8 7 6 8 19 5

Total # of neighbors = 3244512
Ave neighs/atom = 150.6273
Ave special neighs/atom = 0
Neighbor list builds = 4215
Dangerous builds = 0

write_restart nvt_prod.restart.*
System init for write_restart ...
write_data nvt_prod_final.lammps-data
System init for write_data ...

Total wall time: 13:03:57
