LAMMPS data file via write_data, version 4 Feb 2025, timestep = 1200000, units = metal

21540 atoms
3 atom types

0 154.00799999999998 xlo xhi
0 148.2 ylo yhi
0 151.07609208607428 zlo zhi

Masses

1 12.01099999691024
2 1.007999999740698
3 15.99899999588435

Atoms # full

7394 0 1 0 3.8131389721225974 2.390252434901119 54.78113196465384 1 0 0
7393 0 1 0 3.066440127275321 1.1484558736081165 54.75801579309643 1 0 0
7384 0 1 0 1.6287478352347646 1.1185029464537954 54.779828368072984 1 0 0
7395 0 1 0 3.0058123457356642 3.5549159112579467 54.72844576868087 1 0 0
7386 0 1 0 1.6015993777691298 3.5613477519472876 54.66027210198346 1 0 0
6665 0 1 0 0.8973155839380734 2.3162393920097095 54.77986118727787 1 0 0
17140 0 2 0 7.988591351497777 17.460850581588623 57.69244203715782 1 0 0
16951 0 2 0 3.3747057395942166 16.9075122528649 57.19137746321303 1 0 0
16410 0 2 0 2.608527813914336 3.623699906904649 57.17245746225316 1 0 0
7405 0 1 0 5.212122781459601 2.36180463517979 54.895418386294295 1 0 0
7404 0 1 0 5.8900151949043975 1.1156262363693676 55.028795087967445 1 0 0
7406 0 1 0 5.874944036935938 3.5981958648959704 54.98852328681496 1 0 0
7413 0 1 0 7.281247371275428 1.1360725469307504 55.305444792343714 1 0 0
7414 0 1 0 7.954761581991927 2.4072827066152973 55.49584285650113 1 0 0
7425 0 1 0 9.407363314936315 2.4478995846705236 55.63292256401837 1 0 0
7415 0 1 0 7.301113453293652 3.6055697325800065 55.26796947114391 1 0 0
7457 0 1 0 2.9976420872007346 18.489172756229344 54.426924759296114 1 0 0
7390 0 1 0 1.5943415151120726 8.485976650927523 54.83374761821881 1 0 0
7398 0 1 0 3.742162990806837 7.354047857325164 54.804134745465255 1 0 0
7399 0 1 0 2.989473956637097 8.514886374336253 54.892249286233515 1 0 0
7388 0 1 0 1.6152468985389536 6.046324610673532 54.66621760683356 1 0 0
7397 0 1 0 3.039862025634109 6.060319158666715 54.742296856385565 1 0 0
7396 0 1 0 3.718452527515617 4.8375050515512905 54.68413889870385 1 0 0
6667 0 1 0 0.8995376891765424 4.8172733895206346 54.69747097569798 1 0 0
6669 0 1 0 0.9001510780834724 7.2701720988084295 54.76438995138912 1 0 0
17139 0 2 0 6.632668660342595 16.83768439207075 57.6492901007927 1 0 0
16681 0 2 0 2.699860936853261 7.269463406331066 57.879358858554106 1 0 0
21261 0 3 0 2.8916493282858022 6.317004893564879 58.01911969071784 1 0 0
7448 0 1 0 1.6115193173052638 18.44698265213272 54.233457248455764 1 0 0
7407 0 1 0 5.174518990698071 4.850373592473152 54.9220058056998 1 0 0
7409 0 1 0 5.138511482447477 7.356240023825851 55.102386189052496 1 0 0
7408 0 1 0 5.842821933380331 6.135148458507115 55.09261123800729 1 0 0
7410 0 1 0 5.854945422288387 8.584768020389987 55.101089509008084 1 0 0
7419 0 1 0 7.265474348306906 8.580381073703808 55.08755717846719 1 0 0
7417 0 1 0 7.290933656341548 6.119113680439708 55.17269782229748 1 0 0
7418 0 1 0 8.024032029773828 7.33652600811107 55.078019321912926 1 0 0
7416 0 1 0 7.969910785649759 4.857631311519372 55.17202242223884 1 0 0
7427 0 1 0 9.422445383365748 4.81416518261603 55.19128281775146 1 0 0
7429 0 1 0 9.431613543895962 7.303578553791773 55.07141114742694 1 0 0
7487 0 1 0 9.4603389551027 17.240981683251473 54.618156584395905 1 0 0
7474 0 1 0 7.9799800679456006 14.706719035085007 54.701663605498126 1 0 0
7465 0 1 0 5.136513191613733 14.742757777306066 54.49077466792115 1 0 0
14961 0 2 0 1.4295164692622788 18.23541362897349 57.46342325885331 1 0 0
6661 0 1 0 0.8837158103739338 9.751198480389561 54.666957626433124 1 0 0
7442 0 1 0 1.5980512353884897 10.989081134302465 54.62865385444938 1 0 0
7451 0 1 0 3.0064934289603547 11.014001706332762 54.76290387806232 1 0 0
7444 0 1 0 1.5811590599622818 13.48884405484905 54.417601946242485 1 0 0
7453 0 1 0 2.9943059837134802 13.470628119182376 54.48661184093709 1 0 0
7452 0 1 0 3.7094420797709255 12.227283780671575 54.603360726810834 1 0 0
7400 0 1 0 3.705999100329757 9.76992903370441 54.8651342205574 1 0 0
6723 0 1 0 0.9031181770590887 12.220339957349497 54.47244571817905 1 0 0
21490 0 3 0 7.087188965135009 17.717966054824853 57.88365945847812 1 0 0
7454 0 1 0 3.6883907347843787 14.757019307494543 54.37678216729693 1 0 0
11071 0 2 0 2.8831078534807553 13.850397816266032 57.495362206412175 1 0 0
11072 0 2 0 1.773429076537171 14.894494877818156 57.4222904809907 1 0 0
7467 0 1 0 5.198402544975982 17.228864322021952 54.482699611336955 1 0 0
7485 0 1 0 9.434651364980933 14.707397887470554 54.764025407689616 1 0 0
7466 0 1 0 5.885839817129339 16.016875736929254 54.532689380356224 1 0 0
7401 0 1 0 5.11663365340623 9.80438782070783 54.864565544626565 1 0 0
7463 0 1 0 5.135128778082337 12.264006439561111 54.75098840312102 1 0 0
7464 0 1 0 5.824527359182335 13.527020218372598 54.57606961880301 1 0 0
7462 0 1 0 5.897750996872993 11.031775285816442 54.87473743522396 1 0 0
7473 0 1 0 7.278895942031873 13.489919065285598 54.72568428310696 1 0 0
7471 0 1 0 7.327828461226502 11.004148913808233 55.025076561321605 1 0 0
7472 0 1 0 7.98408688894963 12.303768601990642 55.02819383524314 1 0 0
7420 0 1 0 8.04105416195649 9.793875881379057 55.03810560694335 1 0 0
7421 0 1 0 9.479815986811833 9.794265400775554 55.05757417288013 1 0 0
7483 0 1 0 9.427265446078257 12.282182698397289 55.03625667398449 1 0 0
7477 0 1 0 7.342283902325348 18.367849186821164 54.464839764090875 1 0 0
7475 0 1 0 7.326165024775632 15.977616755119131 54.55338315882206 1 0 0
7468 0 1 0 5.9375111468321435 18.437665890266935 54.411895879226314 1 0 0
21396 0 3 0 3.257146860031688 17.74100448397675 57.69776267860207 1 0 0
12130 0 2 0 4.3210382012978235 11.157967090335942 58.105360448147074 1 0 0
15213 0 2 0 7.742911716581976 13.583483801175362 57.47715275132172 1 0 0
7476 0 1 0 8.060634630279669 17.19823199981406 54.49319251233508 1 0 0
18456 0 3 0 2.723539718123256 14.748408667100959 57.30677693734249 1 0 0
17168 0 2 0 1.1999201754635802 5.871328068184911 58.03161289592971 1 0 0
13437 0 2 0 4.748292753546422 15.149325495815924 57.23797082997263 1 0 0
7456 0 1 0 3.7382732330009447 17.28492676868073 54.38346389123669 1 0 0
7446 0 1 0 1.5775425850073959 15.99049016405508 54.27109225149174 1 0 0
6725 0 1 0 0.8690850536074172 14.756031802005003 54.38858648093974 1 0 0
7455 0 1 0 3.0366360878546987 16.00497366310617 54.31806801097625 1 0 0
6727 0 1 0 0.8748583097820725 17.251803808830424 54.2562250646296 1 0 0
16952 0 2 0 3.7737481667210737 18.41102455660895 57.21250757544347 1 0 0
20297 0 3 0 2.5370282283526238 0.23059368850965234 57.66047630915405 1 0 0
16409 0 2 0 2.4599086748153476 2.083570831341754 57.78712571974338 1 0 0
21125 0 3 0 2.6810738221258577 3.0238110303382317 57.96770049060871 1 0 0
19639 0 3 0 5.599989401863707 15.210525652465387 57.714854334777776 1 0 0
21010 0 3 0 5.3291269003338515 0.472508860915542 58.00958010692964 1 0 0
12129 0 2 0 2.757395746989475 11.49184342989655 57.9830862166356 1 0 0
16102 0 2 0 0.1583391808496413 12.440796590671917 57.8764447638636 1 0 0
14783 0 2 0 8.129006935723307 7.148939797127557 57.79627802833102 1 0 0
16180 0 2 0 5.807870722115318 1.3524582721285212 57.997165149820724 1 0 0
19780 0 3 0 1.3036615066712567 1.9113619347574722 62.46666478378934 1 0 0
13719 0 2 0 1.435473288671003 2.1190267230755793 61.533379243993714 1 0 0
13720 0 2 0 2.0656973865311268 1.4993859318892915 62.872865729109876 1 0 0
15851 0 2 0 1.6727182249363364 3.9942409481989163 67.93217230046015 1 0 0
11237 0 2 0 1.654810289603 5.134206076664133 63.35182412021293 1 0 0
19928 0 3 0 3.8885716085544786 3.1570293156853326 60.72298029262618 1 0 0
20971 0 3 0 0.5309039477511495 11.647972398943038 58.21353322591341 1 0 0
14958 0 2 0 0.6813909829818428 10.205567684249843 61.48827274445585 1 0 0
14016 0 2 0 3.1410827951929687 3.4440196368915226 60.21990380783185 1 0 0
14015 0 2 0 4.519168021985797 3.0725416814786053 59.95279578654482 1 0 0
13463 0 2 0 5.283568559583902 17.86145911547995 65.08404458402393 1 0 0
18539 0 3 0 0.8427372761283981 4.820352749703299 62.824998659252735 1 0 0
18699 0 3 0 4.655314839654047 3.2998454839241353 63.6963889173372 1 0 0
11557 0 2 0 5.297937272350912 3.3633534616122485 62.946916588488584 1 0 0
13992 0 2 0 6.3864004571483255 10.375306543863164 58.63835614319553 1 0 0
11711 0 2 0 1.0040843691353838 9.018156094229148 58.277218423630266 1 0 0
15835 0 2 0 0.16373394846806535 1.0424861621015593 63.26470110998651 1 0 0
18701 0 3 0 4.844106755166441 0.3972357384537406 61.04254006750837 1 0 0
11562 0 2 0 4.653835114875311 1.4101244109620907 61.08276610137214 1 0 0
15887 0 2 0 9.578155631806112 17.669209925570208 64.8150291910569 1 0 0
12847 0 2 0 6.912143169129213 1.7235317166042103 62.0614308476648 1 0 0
19344 0 3 0 6.835239691543284 2.6549682314291747 61.77981284124748 1 0 0
20315 0 3 0 7.241270686513147 0.01155877042170887 62.493798559716865 1 0 0
9202 0 2 0 8.04820107959331 1.2399949110661823 64.05410920882352 1 0 0
9736 0 2 0 6.770421097585755 2.691421613395511 59.94509110736444 1 0 0
11593 0 2 0 8.396365087316973 2.653458406022354 58.64152880809155 1 0 0
17788 0 3 0 6.660355484396844 2.6932140276876146 58.93401447509453 1 0 0
19013 0 3 0 4.406371260910523 17.44346531062018 68.28076213116236 1 0 0
19553 0 3 0 0.06929337762514065 6.582932243111487 66.4730705098714 1 0 0
15439 0 2 0 0.03226895143111461 2.137064515351926 60.02935361555926 1 0 0
8698 0 2 0 3.9043507132746407 4.916149449475267 63.6807510594617 1 0 0
14755 0 2 0 3.655660948536278 6.201726425953924 61.6415685057773 1 0 0
20298 0 3 0 3.8198628353510666 6.5370534190897756 60.75403737640584 1 0 0
14756 0 2 0 3.8274542258952167 7.535683878444172 60.76565848728699 1 0 0
16682 0 2 0 3.0417293174336466 6.244483971437205 58.99096370521164 1 0 0
8697 0 2 0 3.377217278720062 6.2934381567077695 64.46100282398733 1 0 0
17269 0 3 0 3.4268462986770087 5.750449382420435 63.65285326247223 1 0 0
20660 0 3 0 7.244891169914563 17.798182068965954 61.86499392359794 1 0 0
14543 0 2 0 1.969183178158082 8.365715830472107 64.52950906905993 1 0 0
11561 0 2 0 4.941786038790904 0.24917387846991138 60.07628618134732 1 0 0
11238 0 2 0 1.0478094585687516 3.872953283527293 62.57443208948936 1 0 0
18797 0 3 0 4.590846163442873 18.45752198593355 61.43272827284924 1 0 0
11754 0 2 0 5.602725015417977 18.350057193747006 61.531048692591746 1 0 0
20154 0 3 0 1.5770328653503205 14.124293605548132 65.78416316108114 1 0 0
14552 0 2 0 5.035681950424098 5.420365815723681 59.65112953172048 1 0 0
12848 0 2 0 7.7667690799086735 3.0855763472800066 61.91446938065325 1 0 0
13631 0 2 0 8.248309916729212 8.492071718294786 60.154310839973455 1 0 0
13618 0 2 0 7.5956507490371985 9.413017213001156 62.50224397520315 1 0 0
13747 0 2 0 9.011340147729308 5.3237283791639385 61.935963459937014 1 0 0
19729 0 3 0 7.105827873871246 9.8707765655403 63.27816775264108 1 0 0
15596 0 2 0 9.196719609613579 1.0811501175234777 59.63373822038192 1 0 0
19916 0 3 0 5.762059083396443 9.694334999976356 58.33654818402266 1 0 0
14551 0 2 0 5.207396590013433 5.197572170857313 58.14186798127643 1 0 0
21179 0 3 0 8.157857178050973 18.515572150226358 65.87690108603401 1 0 0
16941 0 2 0 0.13642484697395674 8.743293831351489 62.876373483386494 1 0 0
13617 0 2 0 7.7682301251167045 10.392978213024898 63.75905481711182 1 0 0
14784 0 2 0 6.776840336388651 6.749712228003952 58.49505975275246 1 0 0
17536 0 3 0 7.274505726020072 14.812889682299074 67.78390818465637 1 0 0
19054 0 3 0 3.9633761394982825 9.074557092724389 60.52990657362285 1 0 0
13272 0 2 0 3.3720773651836295 12.193632763603627 60.1768661393449 1 0 0
13271 0 2 0 3.599486671470103 12.011479752272301 61.67709592196772 1 0 0
19556 0 3 0 3.414442806310477 12.701978261669485 61.024376646934556 1 0 0
12267 0 2 0 4.203963573023786 9.626948940642558 61.30581305302989 1 0 0
15879 0 2 0 4.047780488975499 15.924179883777164 60.37757994655109 1 0 0
20381 0 3 0 4.583275587399648 10.970155539589753 62.90023956518197 1 0 0
16517 0 2 0 7.271729310582348 18.168431724406627 65.61484365340004 1 0 0
14957 0 2 0 0.6399178140992839 11.263659677720444 60.13186167690098 1 0 0
12268 0 2 0 4.569308545588572 9.356282570120916 59.799629790984795 1 0 0
20860 0 3 0 4.502156957819059 15.140142811007923 60.56882300232636 1 0 0
15880 0 2 0 3.834545315545792 14.369404751937573 60.55708141203023 1 0 0
13888 0 2 0 8.005276814215282 10.981967071924185 60.382987349149886 1 0 0
13887 0 2 0 6.88594454241145 11.978672108729587 60.903344422760746 1 0 0
19864 0 3 0 7.309436525337404 11.629136963503754 60.09249173994357 1 0 0
19736 0 3 0 8.607362107017494 9.05196617603629 60.83074150194068 1 0 0
15214 0 2 0 7.835633164155057 12.866547713922904 58.966465267297885 1 0 0
14922 0 2 0 5.500563628984344 10.668941062961409 63.012522895243606 1 0 0
15866 0 2 0 6.05982645082409 14.581246776352385 61.433087841396905 1 0 0
14467 0 2 0 0.7461480885354272 13.68736805903548 65.51100052877658 1 0 0
16942 0 2 0 1.0632632267096007 7.969883410702136 62.09744405124848 1 0 0
13110 0 2 0 2.6132473444160733 16.24243913830105 63.04148577689464 1 0 0
11672 0 2 0 1.7204695520469582 16.90531208831763 60.82743100485032 1 0 0
11671 0 2 0 1.9447481019561939 16.57974974607112 59.39726862883338 1 0 0
18069 0 3 0 3.0847847373774324 14.32473197504364 63.43183375253471 1 0 0
10298 0 2 0 4.027072956063834 14.498060182964934 63.368636745919545 1 0 0
10297 0 2 0 2.861342054060431 13.84272236584694 62.61443448081313 1 0 0
13438 0 2 0 5.460654716091855 15.044941712857167 58.66656735907238 1 0 0
13109 0 2 0 3.404927989755076 17.372529209133397 62.42874135224094 1 0 0
14906 0 2 0 0.5647668743080871 17.864629278741734 63.08188786944173 1 0 0
19475 0 3 0 2.492606918680338 17.15237911417463 62.76601652603375 1 0 0
16014 0 2 0 8.63803896624884 4.549771774552202 68.49220924953107 1 0 0
18756 0 3 0 1.2144347610201134 16.732244464007294 59.985618880844946 1 0 0
15480 0 2 0 7.748786852522943 17.328435716190857 61.16666903200425 1 0 0
16887 0 2 0 8.69529163230405 15.089388251287149 59.49722326485602 1 0 0
21364 0 3 0 8.850268942052594 15.630591704212096 60.2983824712846 1 0 0
21451 0 3 0 7.556641934674571 16.786797348008903 69.6667795829272 1 0 0
15865 0 2 0 7.544104913536542 14.867709632663566 61.90729669082918 1 0 0
20853 0 3 0 6.806161171283443 14.251827737254294 62.08098386248706 1 0 0
19652 0 3 0 5.771516526604638 17.207808465894427 65.61278070273895 1 0 0
15948 0 2 0 1.1814807403481502 15.960713667913623 67.30749360103863 1 0 0
11558 0 2 0 4.167545833634735 2.480714751466201 63.616877793227026 1 0 0
9735 0 2 0 6.402105760396321 3.6594718979581518 58.74676999942043 1 0 0
18195 0 3 0 3.3877629757768077 0.7726558362561173 64.01868691739324 1 0 0
10550 0 2 0 2.976419895054481 0.9900502304316318 64.93643277081077 1 0 0
20658 0 3 0 5.130612600060729 10.712571981439238 69.70921288017246 1 0 0
18044 0 3 0 2.2042122817664827 1.6295228208217072 66.2251720237153 1 0 0
10247 0 2 0 2.5371746871165324 2.5384102570914457 66.62548091869863 1 0 0
10248 0 2 0 2.140851874415223 1.0115398704022218 66.96587508695457 1 0 0
20846 0 3 0 2.5731740710093813 3.7665913947875542 67.7224987600212 1 0 0
15852 0 2 0 3.177729411104263 4.517700702142677 67.80438897852434 1 0 0
18776 0 3 0 1.978042324898096 8.900179030962999 58.38677105439282 1 0 0
11712 0 2 0 2.128204858948172 9.000939868809501 59.32167411359547 1 0 0
16124 0 2 0 5.538425914598223 13.700223471581328 64.76726293727441 1 0 0
9201 0 2 0 7.770757156568539 1.9911876471464314 65.39236822275647 1 0 0
10374 0 2 0 5.268969703238176 1.6164480195667474 66.8041867467044 1 0 0
18107 0 3 0 6.052526706909584 2.1216243549214227 66.47958378298259 1 0 0
10373 0 2 0 5.708549151024739 2.6091081541572927 65.68992058094722 1 0 0
17521 0 3 0 8.348340565372283 2.0113074474105357 64.620914657286 1 0 0
20982 0 3 0 5.811664819996411 14.643414547246088 64.62931998230012 1 0 0
20192 0 3 0 2.2748288763171716 7.925579602708346 65.38909015101764 1 0 0
16574 0 2 0 3.695630560229469 7.216523469382908 67.65485895082367 1 0 0
21207 0 3 0 3.4071393673285337 6.635903472484047 68.35353454672658 1 0 0
12032 0 2 0 3.0000115186263874 10.036449308481435 65.83994671544536 1 0 0
16573 0 2 0 2.463742978742123 6.859875383617315 68.42370731410136 1 0 0
16694 0 2 0 5.7266381829001185 7.079101668366462 63.668871315575956 1 0 0
14544 0 2 0 1.4373684680999743 7.515766146191619 65.69888819260396 1 0 0
20312 0 3 0 7.397343527190768 7.514542556630119 58.37048206496025 1 0 0
16192 0 2 0 9.217246649867501 3.5164742377083784 64.92178932671528 1 0 0
19534 0 3 0 5.444769186669618 12.706161720384893 66.84943210750754 1 0 0
20196 0 3 0 5.6793134845810895 5.319465440075285 58.92968237300332 1 0 0
12997 0 2 0 8.029797595545704 7.088663799811883 63.84004195213678 1 0 0
19419 0 3 0 8.87282037107563 6.672740448584867 63.5458463946985 1 0 0
12998 0 2 0 9.064101047735369 6.042486594277156 64.21916679206538 1 0 0
16693 0 2 0 6.029315592571298 8.370503038239395 64.54040611124823 1 0 0
21267 0 3 0 6.145783164712951 7.404413152641745 64.54667264586186 1 0 0
14789 0 2 0 6.389719326743224 0.030226464026180695 61.922043942196964 1 0 0
20311 0 3 0 7.368311657195984 7.4635162910687765 68.76735986305319 1 0 0
21105 0 3 0 6.016130832908998 4.035384456463952 69.41844602982896 1 0 0
14782 0 2 0 7.808835808544461 6.689299999573848 68.34378996169444 1 0 0
16370 0 2 0 6.1467011418348285 3.8783338060743886 68.44811295880416 1 0 0
14781 0 2 0 6.634750549536213 7.7448958389381914 68.2103043162217 1 0 0
20399 0 3 0 0.3722088979016734 11.090699122988376 61.052082351609016 1 0 0
15003 0 2 0 1.08178990145344 13.781644268730439 68.88306473279182 1 0 0
18936 0 3 0 3.7858361463428256 10.455330873374042 65.4858944590519 1 0 0
15004 0 2 0 1.692212421213675 13.468079113676241 67.44783324745833 1 0 0
17155 0 2 0 0.5855660225213436 9.949187008645868 67.8277724039523 1 0 0
17156 0 2 0 0.5593745467137374 11.42635449405281 67.52115778683438 1 0 0
12031 0 2 0 3.9518542846902345 11.261147546448166 66.06100522435989 1 0 0
21498 0 3 0 0.3807260334480878 10.537174648823497 67.12734701697197 1 0 0
14921 0 2 0 4.147345581326822 10.96541857525437 63.76505240102758 1 0 0
12058 0 2 0 3.1826169543998617 13.13245459055559 68.99147364148095 1 0 0
16376 0 2 0 0.4222717845826053 5.930187968653242 61.624971100697884 1 0 0
16916 0 2 0 4.982019350789096 9.182621725868769 66.7371363708441 1 0 0
18949 0 3 0 4.10462284581709 13.316643825762474 69.3033425558427 1 0 0
21504 0 3 0 0.28728225606030294 5.7390997253838325 58.21340076475006 1 0 0
20422 0 3 0 1.6391345130623436 13.12107439465809 68.37661189561544 1 0 0
13228 0 2 0 6.200913213365999 12.19311297526433 67.18508667964167 1 0 0
13227 0 2 0 4.931547259075699 13.04884856167268 67.64531294294947 1 0 0
15947 0 2 0 0.9273045979973594 17.496423170515417 67.15253460857424 1 0 0
14734 0 2 0 8.573301501212113 10.622120272837336 65.6391996622807 1 0 0
17167 0 2 0 0.19392165513729895 5.53637726652362 59.159454431523876 1 0 0
14733 0 2 0 8.907175643824203 11.938998757427074 64.92713552779841 1 0 0
16915 0 2 0 5.249798232769306 9.6533156890325 68.24778552694814 1 0 0
17014 0 2 0 9.119449947779609 9.436342486879594 67.1937691613788 1 0 0
21378 0 3 0 5.451635243005757 9.000174820769935 67.54299529888574 1 0 0
21427 0 3 0 8.415461800321516 10.140806889537629 67.23833362018887 1 0 0
17013 0 2 0 7.599396585987964 9.64238985261563 67.31023149423382 1 0 0
20287 0 3 0 8.884632349581594 10.969392848053657 64.77365966489282 1 0 0
18985 0 3 0 3.6518886884421806 11.830373869499038 58.29670863124485 1 0 0
16655 0 2 0 1.6183467488037198 17.00351487642488 69.42765672317323 1 0 0
14468 0 2 0 2.1017225000646444 14.238069388108778 64.95347348809617 1 0 0
12186 0 2 0 5.074212094006387 16.99570250007461 68.89471187432974 1 0 0
17062 0 2 0 7.340848517745894 16.046117736936473 69.04670376671845 1 0 0
9231 0 2 0 7.918947409571124 14.107740892344186 67.64127891836671 1 0 0
13464 0 2 0 5.722970517148019 16.297153162057878 65.29563368724828 1 0 0
9232 0 2 0 6.5570455134221355 14.72147014488797 67.1512933560432 1 0 0
21391 0 3 0 1.05109453078296 8.811819990434456 62.579713220031124 1 0 0
20718 0 3 0 9.014317754895767 0.20957060094242 60.07339856929816 1 0 0
16123 0 2 0 6.224444125694963 14.547887071839089 63.748533946354904 1 0 0
12185 0 2 0 4.849775345368767 17.40537213266731 67.45056171518458 1 0 0
15440 0 2 0 1.2739742290838734 2.879817964973437 59.27090464358716 1 0 0
20894 0 3 0 0.7050863571530634 16.690143199213463 67.66860933389277 1 0 0
16446 0 2 0 0.5032588376180159 1.9536602585007636 66.0100403665468 1 0 0
19794 0 3 0 9.12012840865838 4.707246249146444 61.20600326988006 1 0 0
18717 0 3 0 9.384850858941258 2.6362979223249825 58.63624301480785 1 0 0
20927 0 3 0 8.314940866973771 5.098281186731218 67.73010896378779 1 0 0
20640 0 3 0 0.6886064665798242 2.8757184336807073 60.075815899679625 1 0 0
20527 0 3 0 8.290838865708757 13.542804991352304 58.30352316472363 1 0 0
16013 0 2 0 8.975414279457613 5.088721338437272 66.9825960829548 1 0 0
17999 0 3 0 0.6081230876494368 7.321699211162501 69.32314519892493 1 0 0
21204 0 3 0 9.46362183945005 13.108969102721483 68.17287168193378 1 0 0
21108 0 3 0 0.33361239561443107 6.754751170946467 60.98212783270635 1 0 0
17061 0 2 0 7.579383490578581 17.600984231696444 69.10664305155116 1 0 0
21016 0 3 0 9.597546165392098 4.414787879479234 65.19667752178773 1 0 0
14663 0 2 0 9.426365614531761 18.443819483137144 67.27492658311789 1 0 0
16980 0 2 0 8.503153796342243 12.350299682494859 69.42601241789264 1 0 0
12057 0 2 0 4.5320049480418465 12.492369273356069 69.6443190061441 1 0 0
10157 0 2 0 0.7900885859505166 8.271552529760935 69.62214069555664 1 0 0
13991 0 2 0 6.372596704564458 8.895231616202086 58.25636538112596 1 0 0
21228 0 3 0 2.7907460701869513 2.6646685584177523 71.2289012355465 1 0 0
16616 0 2 0 1.8297073044427974 2.6584553421117936 71.37505920265943 1 0 0
16615 0 2 0 3.157496382989573 3.623210029189613 71.01206569951106 1 0 0
16394 0 2 0 0.17975714763429818 17.797551380898334 77.60306966309992 1 0 0
21117 0 3 0 0.7516442333045659 17.03867675153872 77.79236041245116 1 0 0
10737 0 2 0 7.209551173345624 6.836812414287715 70.92961885813814 1 0 0
12992 0 2 0 4.5713807813759 16.03620983627666 71.3738534836375 1 0 0
16381 0 2 0 4.875189270297568 16.05007501328541 76.46764567347591 1 0 0
15475 0 2 0 6.036186627475986 10.94035613916994 69.99653719924252 1 0 0
15987 0 2 0 1.3474790317391443 5.702805931378938 71.41316192943103 1 0 0
21095 0 3 0 3.877503029025218 6.859253788696378 71.40698781098497 1 0 0
11890 0 2 0 0.8789096343320818 10.667916295665126 70.71440262394648 1 0 0
20914 0 3 0 0.4253028166144182 5.589258415546322 71.61283091084339 1 0 0
15476 0 2 0 4.649744781649998 10.109652614439264 70.35336591922584 1 0 0
15988 0 2 0 0.043660071722961644 6.115827808867273 70.92303485688463 1 0 0
16203 0 2 0 3.796701070004009 8.59400601465829 71.91796087833212 1 0 0
21410 0 3 0 8.04487091572159 12.20267683390248 70.28342074619113 1 0 0
13182 0 2 0 2.867380864509279 17.239076291453227 77.44114197129778 1 0 0
20277 0 3 0 4.8161064081157186 1.1031585977811422 70.50813709816678 1 0 0
16349 0 2 0 4.091874447708826 6.891952816385218 70.447221798728 1 0 0
15676 0 2 0 8.005434113296598 9.014498266811641 70.18963242914789 1 0 0
16350 0 2 0 4.764492129716921 6.575475197587423 71.7837098344335 1 0 0
10785 0 2 0 6.963950832481879 6.295829086386458 73.1322412709505 1 0 0
18289 0 3 0 6.642149807799029 6.171819221159076 71.39525218228032 1 0 0
10786 0 2 0 6.346656988218786 6.414589301515041 74.51719311790472 1 0 0
18313 0 3 0 7.083413749924941 6.706170591154111 73.98672772524823 1 0 0
16948 0 2 0 6.986148811585324 8.651623392442538 73.78969850454574 1 0 0
21394 0 3 0 7.0103575457828855 9.644215493051075 73.53851253453774 1 0 0
16947 0 2 0 7.311512253646808 9.737771961304146 72.63988719967088 1 0 0
17227 0 2 0 0.6516325422353569 12.267194840335046 72.76993286544592 1 0 0
18695 0 3 0 1.7491217967265964 13.336188573182161 77.26070331709423 1 0 0
11889 0 2 0 2.1788199327848874 9.94224852580474 70.77846682415971 1 0 0
14813 0 2 0 8.737552463223425 15.257023618575113 72.30820399666196 1 0 0
14814 0 2 0 9.06757639289157 16.788544715578603 71.68329390174924 1 0 0
15973 0 2 0 2.714079850402942 0.03628952334150881 72.26894006868271 1 0 0
16204 0 2 0 3.585135303880986 10.074932062008191 72.68468011715778 1 0 0
21022 0 3 0 3.5980698126239186 9.57848063168412 71.81093238831083 1 0 0
19511 0 3 0 3.5165398840462787 17.494208636413976 76.747951447744 1 0 0
15497 0 2 0 4.279966792849968 11.298200785532979 74.62465515468675 1 0 0
8778 0 2 0 0.34452362543796605 10.28058865432049 74.3366243810488 1 0 0
17228 0 2 0 0.9977187103158691 13.644703351482416 71.99815225883127 1 0 0
11550 0 2 0 2.6385436879533692 12.85870516146185 77.1907212116136 1 0 0
19528 0 3 0 3.7137843398036225 11.502615014149564 76.4269775863755 1 0 0
20669 0 3 0 4.686678226533503 11.139865294663048 73.75564918594938 1 0 0
21337 0 3 0 5.153767949996945 13.766542056148857 73.14961464917393 1 0 0
16834 0 2 0 4.896248562083232 12.824498394560838 73.2849242193838 1 0 0
15498 0 2 0 5.420407701751972 10.475253393947462 73.9257160445915 1 0 0
20758 0 3 0 8.41373604472381 9.552456634829753 70.89532049944948 1 0 0
15675 0 2 0 8.292573498353908 10.51051790925289 70.77305834947104 1 0 0
20546 0 3 0 6.107625492646878 12.742883143060448 76.8347847527911 1 0 0
16979 0 2 0 8.505284233204225 12.700630088192977 70.93606312184743 1 0 0
15917 0 2 0 7.705756703578101 11.110228076611438 74.50309941745932 1 0 0
15881 0 2 0 8.203602889406383 13.373926275588914 73.64046456248836 1 0 0
15882 0 2 0 6.996368393832867 13.946551959429183 72.92925453101017 1 0 0
20861 0 3 0 8.007578495299622 13.83611920451289 72.82688702951819 1 0 0
20879 0 3 0 8.156853389874948 11.867077214297638 74.95044034249082 1 0 0
19416 0 3 0 3.8466813885930993 15.369737862190226 71.23517950595932 1 0 0
20327 0 3 0 9.46324158256567 16.01420119360676 72.12895552512578 1 0 0
21248 0 3 0 1.4884502974367408 16.91825169640906 70.40792486783636 1 0 0
12991 0 2 0 4.071946114902716 14.710907850401654 70.51877861801248 1 0 0
16393 0 2 0 0.34384163473205004 16.673053529896713 78.60232531827788 1 0 0
8800 0 2 0 0.3906342234570085 1.1566656678032508 72.70034823452923 1 0 0
16656 0 2 0 2.2564438735120516 16.430631395971506 70.62892355827123 1 0 0
13045 0 2 0 4.78953283900564 18.3067838946077 73.18383074135417 1 0 0
14714 0 2 0 4.539802621857814 0.522596082168164 69.76107928478126 1 0 0
10738 0 2 0 6.527245465290615 5.457534727268371 70.67705635170678 1 0 0
13307 0 2 0 2.0002615649446644 17.679283589132762 73.72557160222371 1 0 0
19574 0 3 0 1.827611889304568 17.07497936697433 74.48011403700964 1 0 0
13308 0 2 0 1.2519188397414212 17.692424268843904 74.99815238225062 1 0 0
13181 0 2 0 3.0283216072187598 17.29863355106673 75.9130193993947 1 0 0
14969 0 2 0 0.3167552753907387 16.141769095993347 73.62676468402707 1 0 0
21111 0 3 0 5.492700650495207 15.451478478108916 75.91743898640703 1 0 0
19111 0 3 0 5.800462158408096 17.060034100675892 71.81601640439366 1 0 0
12381 0 2 0 6.304125641820418 16.64191853674887 72.54023960003296 1 0 0
12382 0 2 0 6.345983409575478 16.991146246919538 70.99204499203012 1 0 0
16833 0 2 0 4.461528515569608 14.296772780787181 72.71078579947093 1 0 0
21534 0 3 0 0.9347065987556615 12.666648597844379 71.88003795568785 1 0 0
16382 0 2 0 4.917862764368909 14.973008094410842 75.28039165754393 1 0 0
13283 0 2 0 6.941717067230977 16.53988499622024 74.94299917230501 1 0 0
18865 0 3 0 1.3357544656341915 9.921317028195286 70.29101331102667 1 0 0
11549 0 2 0 1.571357844883066 13.589835806275232 76.35240024895616 1 0 0
15252 0 2 0 6.722650099113731 12.581889174444832 76.0623489312257 1 0 0
14713 0 2 0 4.004162853696343 1.6360976000782088 70.61786447660761 1 0 0
13284 0 2 0 8.38525969770842 17.04269405276933 75.37838901735891 1 0 0
19562 0 3 0 7.577424330398052 17.31813791286471 74.88523516625656 1 0 0
11862 0 2 0 0.8596421792577897 7.884571710573792 76.32507065158354 1 0 0
18851 0 3 0 1.0167596348275756 8.762335422255019 75.83899050796674 1 0 0
15965 0 2 0 1.8465824306364083 18.263035818035604 71.5063144955255 1 0 0
11861 0 2 0 0.4070007410534301 9.303103272043847 76.37570453342529 1 0 0
13215 0 2 0 3.6417345920516313 10.618493617390726 76.79374903089733 1 0 0
13216 0 2 0 4.501793674214261 11.865949837708827 76.77807711342123 1 0 0
15251 0 2 0 5.870849727699021 13.73938131580201 76.5602344354811 1 0 0
15918 0 2 0 8.679324799030116 11.455882812354378 75.63782805458085 1 0 0
17320 0 3 0 0.6150104170429961 0.22881409172810765 72.66573111471787 1 0 0
14837 0 2 0 0.01244901415520188 12.715630971449533 78.48026133628427 1 0 0
11806 0 2 0 0.17892447010449086 15.644359916516608 70.01550705759729 1 0 0
16369 0 2 0 5.827018223682894 3.1929053269839707 69.86899427494663 1 0 0
7459 0 1 0 3.122841558284362 20.95298089183183 54.32100026616794 1 0 0
7450 0 1 0 1.6683315435694301 20.955489595075942 54.29836995149812 1 0 0
7458 0 1 0 3.7877212903162913 19.71645994988585 54.37936633329402 1 0 0
7460 0 1 0 3.8213092956463415 22.198028014041803 54.32773154516297 1 0 0
6721 0 1 0 0.9718104382489424 22.185266644180953 54.299090515300755 1 0 0
6729 0 1 0 0.898994788469906 19.702899962194085 54.24481463028593 1 0 0
20717 0 3 0 4.8030852287154095 20.193126766414156 57.316564653179874 1 0 0
14998 0 2 0 6.297847541868118 23.10726390134428 57.572864063499594 1 0 0
12290 0 2 0 4.804848511604598 33.664483690166534 57.46237114960913 1 0 0
7469 0 1 0 5.199493137872247 19.595453206456455 54.28715792965476 1 0 0
7461 0 1 0 5.255196308263835 22.196377117926595 54.32187348439596 1 0 0
7470 0 1 0 5.935210192895076 20.911012284221762 54.36238512469442 1 0 0
7479 0 1 0 7.345156921856495 20.88034252023379 54.33806236477009 1 0 0
7480 0 1 0 8.07019678507331 22.120634846025162 54.30878332928011 1 0 0
7478 0 1 0 8.104290409736551 19.63679802260419 54.464846550656866 1 0 0
7489 0 1 0 9.528852262171922 19.66995697873078 54.55017300197563 1 0 0
7481 0 1 0 9.498081003453999 22.164271564793584 54.50929770030229 1 0 0
12439 0 2 0 8.816178001088918 36.49344571280403 58.05685257910071 1 0 0
20419 0 3 0 7.003528270270139 22.446575728310517 57.404165977730734 1 0 0
14620 0 2 0 9.080736764684707 24.41329649278212 57.96995864737438 1 0 0
7592 0 1 0 8.010671037042508 36.98298608478199 55.5818586443995 1 0 0