LAMMPS (4 Feb 2025)
OMP_NUM_THREADS environment is not set. Defaulting to 1 thread. (src/comm.cpp:99)
  using 1 OpenMP thread(s) per MPI task
# LAMMPS script for continuing NVT simulation

atom_modify map yes
newton      on

read_restart nvt_prod.restart.880000
Reading restart file ...
  restart file = 4 Feb 2025, LAMMPS = 4 Feb 2025
  restoring atom style full from restart
  orthogonal box = (0 0 0) to (153.23796 147.4533 151.07317)
  16 by 8 by 8 MPI processor grid
  pair style symmetrix/mace stores no restart info
  11640 atoms
Finding 1-2 1-3 1-4 neighbors ...
  special bond factors lj:    0        0        0       
  special bond factors coul:  0        0        0       
     0 = max # of 1-2 neighbors
     0 = max # of 1-3 neighbors
     0 = max # of 1-4 neighbors
     1 = max # of special neighbors
  special bonds CPU = 4.220 seconds
  read_restart CPU = 4.410 seconds

pair_style  symmetrix/mace
pair_coeff  * * ../../../00-common/models/ch2o-dens-inv_swa-1-6-8.json C H O
Loading MACE model from '../../../00-common/models/ch2o-dens-inv_swa-1-6-8.json' ... success
  mapping LAMMPS type 1 (C) to MACE type 1
  mapping LAMMPS type 2 (H) to MACE type 0
  mapping LAMMPS type 3 (O) to MACE type 2

group graphene type 1
8640 atoms in group graphene
group H2O type 2 3
3000 atoms in group H2O

thermo 1000

######### NVT production for 80 ps #############

dump DUMP1 all atom 100 nvt_prod_11.lammpstrj
timestep 0.001
fix NVT1 graphene nvt temp 300 300 0.1
Resetting global fix info from restart file:
  fix style: nvt, fix ID: NVT1
fix NVT2 H2O nvt temp 300 300 0.1
Resetting global fix info from restart file:
  fix style: nvt, fix ID: NVT2
run 80000
All restart file global fix info was re-assigned
Neighbor list info ...
  update: every = 1 steps, delay = 0 steps, check = yes
  max neighbors/atom: 2000, page size: 100000
  master list distance cutoff = 8
  ghost atom cutoff = 8
  binsize = 4, bins = 39 37 38
  1 neighbor lists, perpetual/occasional/extra = 1 0 0
  (1) pair symmetrix/mace, perpetual
      attributes: full, newton on
      pair build: full/bin
      stencil: full/bin/3d
      bin: standard
Per MPI rank memory allocation (min/avg/max) = 5.921 | 6.153 | 8.139 Mbytes
   Step          Temp          E_pair         E_mol          TotEng         Press     
    880000   298.95936     -1809895.8      0             -1809446.1      63.953828    
    881000   295.93148     -1809898.3      0             -1809453        37.269577    
    882000   299.5832      -1809899.4      0             -1809448.6      48.895739    
    883000   296.97178     -1809900        0             -1809453.3      75.862703    
    884000   299.95969     -1809900        0             -1809448.7      97.868164    
    885000   299.96454     -1809899.9      0             -1809448.6      73.131256    
    886000   302.02414     -1809898.8      0             -1809444.4      56.381533    
    887000   300.23716     -1809900.6      0             -1809448.9      80.607127    
    888000   303.39365     -1809898.4      0             -1809442        121.7952     
    889000   297.32342     -1809902.7      0             -1809455.4      90.641483    
    890000   301.41875     -1809902.8      0             -1809449.3      63.69955     
    891000   299.48014     -1809902.7      0             -1809452.2      63.051216    
    892000   296.28717     -1809900.5      0             -1809454.7      81.067053    
    893000   300.12302     -1809894.7      0             -1809443.2      55.488059    
    894000   305.4252      -1809906.1      0             -1809446.6      35.789599    
    895000   299.24002     -1809898        0             -1809447.8      81.486942    
    896000   299.33849     -1809899.5      0             -1809449.1      113.92284    
    897000   299.09716     -1809909.4      0             -1809459.5      58.497576    
    898000   300.52106     -1809903.3      0             -1809451.2      37.10596     
    899000   299.63095     -1809899.3      0             -1809448.6      104.96353    
    900000   297.89816     -1809900.5      0             -1809452.3      56.396709    
    901000   302.71787     -1809901.6      0             -1809446.2      71.762034    
    902000   302.31538     -1809900.2      0             -1809445.4      90.332195    
    903000   302.66022     -1809896.8      0             -1809441.4      57.715774    
    904000   298.57567     -1809902.1      0             -1809452.9      79.320921    
    905000   300.74914     -1809907.7      0             -1809455.2      86.327663    
    906000   303.51012     -1809902.4      0             -1809445.8      62.048124    
    907000   298.88758     -1809903.9      0             -1809454.2      50.294315    
    908000   299.24212     -1809897.4      0             -1809447.2      76.237495    
    909000   301.28821     -1809901.4      0             -1809448.2      115.32645    
    910000   300.70627     -1809899.5      0             -1809447.1      38.712337    
    911000   301.0502      -1809903.7      0             -1809450.8      46.000275    
    912000   302.19693     -1809906.9      0             -1809452.2      103.44356    
    913000   301.07315     -1809902.8      0             -1809449.8      117.88039    
    914000   298.87058     -1809905.1      0             -1809455.4      18.754532    
    915000   299.5961      -1809901.2      0             -1809450.4      78.312692    
    916000   302.26071     -1809896.1      0             -1809441.4      111.40026    
    917000   302.8027      -1809896.9      0             -1809441.4      61.743142    
    918000   299.01667     -1809901.6      0             -1809451.7      0.42916701   
    919000   295.63488     -1809898.2      0             -1809453.4      41.221052    
    920000   300.52063     -1809897.3      0             -1809445.2      117.43763    
    921000   298.04878     -1809899.6      0             -1809451.2      77.790586    
    922000   298.02248     -1809905.5      0             -1809457.2      31.354984    
    923000   297.81736     -1809901        0             -1809453        79.398695    
    924000   300.61242     -1809902.9      0             -1809450.7      82.476575    
    925000   298.39433     -1809901.2      0             -1809452.3      65.697612    
    926000   298.88644     -1809902        0             -1809452.4      49.175715    
    927000   303.32322     -1809899.3      0             -1809443        53.410779    
    928000   301.26252     -1809903.4      0             -1809450.2      42.084431    
    929000   301.6424      -1809908.5      0             -1809454.7      78.3386      
    930000   300.11103     -1809905.8      0             -1809454.3      68.487468    
    931000   302.10665     -1809907.4      0             -1809452.9      61.193405    
    932000   298.69696     -1809908.2      0             -1809458.9      34.309208    
    933000   298.06755     -1809898.9      0             -1809450.4      69.772289    
    934000   293.94052     -1809904.4      0             -1809462.2      89.215423    
    935000   299.82815     -1809902.7      0             -1809451.6      77.893014    
    936000   299.13105     -1809903.9      0             -1809453.9      1.6044355    
    937000   302.10531     -1809899.4      0             -1809444.9      45.004929    
    938000   299.41168     -1809901.6      0             -1809451.1      86.045185    
    939000   299.03696     -1809903.7      0             -1809453.8      82.227965    
    940000   299.70378     -1809906.2      0             -1809455.3      65.788189    
    941000   299.61908     -1809901.2      0             -1809450.4      65.374694    
    942000   299.75594     -1809902.9      0             -1809451.9      38.857642    
    943000   303.67055     -1809907.9      0             -1809451        90.591117    
    944000   299.93817     -1809906.4      0             -1809455.2      84.326907    
    945000   295.80671     -1809906.4      0             -1809461.4      47.256361    
    946000   298.75736     -1809906.1      0             -1809456.6      52.096779    
    947000   303.11683     -1809900        0             -1809444        124.77339    
    948000   297.74393     -1809902.5      0             -1809454.5      43.979388    
    949000   296.67932     -1809901        0             -1809454.7      41.924633    
    950000   303.3367      -1809899.8      0             -1809443.4      150.40271    
    951000   296.42047     -1809893.3      0             -1809447.3      45.58244     
    952000   303.34925     -1809899        0             -1809442.6      18.379523    
    953000   300.34011     -1809900        0             -1809448.1      64.763316    
    954000   296.87339     -1809893.4      0             -1809446.8      101.12582    
    955000   297.17109     -1809903        0             -1809455.9      72.164348    
    956000   297.08476     -1809897.9      0             -1809451        26.014335    
    957000   299.41893     -1809894.1      0             -1809443.6      56.311413    
    958000   302.43331     -1809900.3      0             -1809445.3      78.983371    
    959000   300.70154     -1809900.8      0             -1809448.4      69.041161    
    960000   301.53016     -1809895.4      0             -1809441.7      98.631231    
Loop time of 54817.1 on 1024 procs for 80000 steps with 11640 atoms

Performance: 0.126 ns/day, 190.337 hours/ns, 1.459 timesteps/s, 16.987 katom-step/s
100.0% CPU use with 1024 MPI tasks x 1 OpenMP threads

MPI task timing breakdown:
Section |  min time  |  avg time  |  max time  |%varavg| %total
---------------------------------------------------------------
Pair    | 206.08     | 5521.1     | 21490      |6251.7 | 10.07
Bond    | 0.0034597  | 0.0081223  | 0.015141   |   2.3 |  0.00
Neigh   | 0.025182   | 0.14317    | 1.0304     |  43.8 |  0.00
Comm    | 0.62293    | 1875.7     | 5994       |3497.1 |  3.42
Output  | 0.78697    | 5.4492     | 10.531     | 125.7 |  0.01
Modify  | 30497      | 47407      | 54597      |2599.6 | 86.48
Other   |            | 7.379      |            |       |  0.01

Nlocal:        11.3672 ave         259 max           0 min
Histogram: 872 23 101 10 6 4 2 2 1 3
Nghost:        100.198 ave        1485 max           0 min
Histogram: 766 99 115 9 14 5 4 8 2 2
Neighs:              0 ave           0 max           0 min
Histogram: 1024 0 0 0 0 0 0 0 0 0
FullNghs:      1222.27 ave       49076 max           0 min
Histogram: 913 86 6 5 5 2 3 1 0 3

Total # of neighbors = 1251608
Ave neighs/atom = 107.52646
Ave special neighs/atom = 0
Neighbor list builds = 3705
Dangerous builds = 0

write_restart nvt_prod.restart.*
System init for write_restart ...
write_data nvt_prod_final.lammps-data
System init for write_data ...

Total wall time: 15:14:00
