LAMMPS data file via write_data, version 4 Feb 2025, timestep = 960000, units = metal

11640 atoms
3 atom types

0 153.23796 xlo xhi
0 147.45329576011517 ylo yhi
0 151.07316997686289 zlo zhi

Masses

1 12.01099999691024
2 1.007999999740698
3 15.99899999588435

Atoms # full

5598 0 1 0 1.6243351835004383 1.406493129685211 112.99336369825224 6 -1 10
5603 0 1 0 2.380815564498264 2.6453593329406813 113.2653997857594 6 -1 10
5599 0 1 0 2.354577575674893 0.21435547031920676 112.92164926858078 6 -1 10
5597 0 1 0 0.2528351016706987 1.4766251275698836 112.77166835386326 6 -1 10
5601 0 1 0 0.23373251077397014 3.951240940828928 113.09100110987875 6 -1 10
5600 0 1 0 3.768096714054934 0.1710350755692057 113.11511578929272 6 -1 10
5619 0 1 0 2.3820032294824482 12.462585419873117 114.3494395808761 6 -1 10
5622 0 1 0 1.6114130790156862 16.174975155784725 114.3150392689847 6 -1 10
5618 0 1 0 1.658484856991396 13.754568243445979 114.34613636821308 6 -1 10
5623 0 1 0 2.3515083560420322 14.975522691530118 114.29681484418742 6 -1 10
5611 0 1 0 2.3621385349421375 7.4928382001461244 114.06328877666593 6 -1 10
5857 0 1 0 4.487348235854186 13.712214225238707 114.41136038355535 6 -1 10
5614 0 1 0 1.670078503403074 11.26073235938651 114.19393594899046 6 -1 10
5620 0 1 0 3.7979600736302346 12.507325164682273 114.44996660490375 6 -1 10
5852 0 1 0 8.057681903701948 7.50169990328549 114.64651130328465 6 -1 10
5624 0 1 0 3.7863234058226927 14.90958227804893 114.25580576511233 6 -1 10
5849 0 1 0 4.473108194302365 8.742717985141045 114.41181169782904 6 -1 10
5855 0 1 0 6.653967284528996 9.937557288471952 114.49349852231371 6 -1 10
5628 0 1 0 3.789289101067821 17.396304435054013 114.2040855380767 6 -1 10
5867 0 1 0 6.644630233109278 17.359764848204623 113.88712477537187 6 -1 10
5627 0 1 0 2.410497989596719 17.386461454575166 114.39757413520586 6 -1 10
5858 0 1 0 5.90756608747442 13.672334210101575 114.36050922570763 6 -1 10
5859 0 1 0 6.606858894179719 12.403366680434935 114.36245605792162 6 -1 10
5848 0 1 0 7.972770616285189 4.941917915239117 114.52725382048128 6 -1 10
6081 0 1 0 8.686012258799114 3.712423171046226 114.48304126554926 6 -1 10
5856 0 1 0 8.06150720030757 9.960976183400426 114.45313994074375 6 -1 10
6077 0 1 0 8.702389945991875 1.2502227883826873 114.19604065679736 6 -1 10
5850 0 1 0 5.8839511951964765 8.74397281681931 114.55203043682485 6 -1 10
5616 0 1 0 3.78259450534316 9.98423599282453 114.38469964685625 6 -1 10
5853 0 1 0 4.530916649742124 11.24027508033262 114.46780005395303 6 -1 10
5854 0 1 0 5.8926600305140475 11.188132767098228 114.47517907912206 6 -1 10
5615 0 1 0 2.3504937252632683 9.988703717427297 114.1540737502084 6 -1 10
5610 0 1 0 1.6700039141417458 8.760241309936951 113.98787549422893 6 -1 10
6085 0 1 0 8.729456508432147 6.182995837022622 114.61650100515318 6 -1 10
5851 0 1 0 6.623303714114216 7.4642876472272786 114.56444899194895 6 -1 10
5846 0 1 0 5.847049854286318 6.284598161755164 114.41918663600985 6 -1 10
5612 0 1 0 3.758746103483348 7.509528852505273 114.2999864776084 6 -1 10
6089 0 1 0 8.76824996122928 8.732415931125812 114.65893639074042 6 -1 10
5863 0 1 0 6.653366260625916 14.870046284374196 114.14665512985965 6 -1 10
5840 0 1 0 7.996388476443034 0.021026347938792662 114.01094124056927 6 -1 10
5861 0 1 0 4.5060340429271655 16.143977010940844 113.99502384262821 6 -1 10
5847 0 1 0 6.530481759544938 5.046526907891305 114.35940294013625 6 -1 10
5864 0 1 0 8.071358531411969 14.899808987798098 114.01266691671904 6 -1 10
5842 0 1 0 5.795943351928542 3.779746767923696 114.15136165540264 6 -1 10
5868 0 1 0 8.094780127886988 17.329248323157273 113.85725422340032 6 -1 10
5862 0 1 0 5.923898490148295 16.11679651574081 113.93008289790617 6 -1 10
5844 0 1 0 8.005348643048436 2.4914517358423804 114.30050026529695 6 -1 10
5845 0 1 0 4.433604733687643 6.300767081329589 114.21876421003482 6 -1 10
5608 0 1 0 3.76796789105317 5.1071147837422135 113.94120006091913 6 -1 10
6093 0 1 0 8.761472329470374 11.146270926133296 114.30592907081262 6 -1 10
5843 0 1 0 6.587958131457249 2.5501434235749003 114.053947871867 6 -1 10
6101 0 1 0 8.82406954307088 16.105141359891356 113.97464767474634 6 -1 10
5860 0 1 0 8.07261276687329 12.408604260068428 114.27199446726127 6 -1 10
5841 0 1 0 4.457162246255331 3.8717423404706723 113.90022814397133 6 -1 10
5606 0 1 0 1.6232286737873276 6.32297371704175 113.79517510467379 6 -1 10
5621 0 1 0 0.19654424369674806 16.175856551955093 114.39961028701953 6 -1 10
6097 0 1 0 8.759754032810957 13.656274185138813 114.1118228293049 6 -1 10
5607 0 1 0 2.3226517158644184 5.087664666207727 113.74437000345057 6 -1 10
5838 0 1 0 5.893148390548847 1.3636735742981074 113.7564331754054 6 -1 10
5604 0 1 0 3.813074098744857 2.603323598748894 113.50115865955226 6 -1 10
5839 0 1 0 6.531433395256457 0.11256129963790831 113.80463205394628 6 -1 10
5613 0 1 0 0.24595188582905317 11.291451820494167 114.01202865782966 6 -1 10
5617 0 1 0 0.23073262446783732 13.761509248862057 114.20590487034376 6 -1 10
5605 0 1 0 0.24053849927261978 6.382285487790326 113.47473493855438 6 -1 10
5837 0 1 0 4.494509673180849 1.3953983964274594 113.42367373529349 6 -1 10
5609 0 1 0 0.26861105413251746 8.790623048133611 113.76377554241759 6 -1 10
5602 0 1 0 1.6728043702619628 3.880888052339598 113.32539141314642 6 -1 10
5656 0 1 0 3.9403949137923897 34.668065302032545 113.19201130041252 6 -1 10
5894 0 1 0 6.044402720553118 35.80232852289837 112.57742991452066 6 -1 10
5896 0 1 0 8.12877556569626 34.54716840111924 112.56607431005192 6 -1 10
5889 0 1 0 4.639013368370485 33.4033324022009 113.27386526373908 6 -1 10
5895 0 1 0 6.776462813742983 34.59976007106265 112.78897676873125 6 -1 10
5892 0 1 0 8.14341433702323 32.11605044038439 112.88251221492216 6 -1 10
5890 0 1 0 6.05638324680775 33.385141688095764 113.01794513058873 6 -1 10
6133 0 1 0 8.83801368329184 35.773744198337866 112.2099802746144 6 -1 10
5891 0 1 0 6.773000825085609 32.14927723527521 113.09472187331338 6 -1 10
6125 0 1 0 8.829513363488243 30.842391056099082 112.73630003118443 6 -1 10
6129 0 1 0 8.858654872232801 33.303593510912904 112.5958448620768 6 -1 10
6113 0 1 0 8.783174911201952 23.488590325780752 113.25423617125935 6 -1 10
6121 0 1 0 8.838808695008575 28.41646543643351 113.19121869073317 6 -1 10
5893 0 1 0 4.610769625500048 35.84495792750334 112.73050893628657 6 -1 10
5888 0 1 0 8.116374177885701 29.654589112926306 113.17380282518816 6 -1 10
5626 0 1 0 1.7453657659551725 18.613265552471958 114.63542627108009 6 -1 10
5631 0 1 0 2.375565341769526 19.896763137752753 114.56830565005018 6 -1 10
5630 0 1 0 1.7133473378194521 21.15743046813678 114.52838371289529 6 -1 10
5634 0 1 0 1.7540940800493474 23.588889822540107 114.47499924541687 6 -1 10
5635 0 1 0 2.4832648303475136 22.354892760446177 114.3115491615122 6 -1 10
5632 0 1 0 3.774061209522619 19.857189268601886 114.29062374156085 6 -1 10
5639 0 1 0 2.423811513667474 24.819846049222903 114.32480176514105 6 -1 10
5637 0 1 0 0.38289484664332946 26.074458102859968 114.64172658271991 6 -1 10
5636 0 1 0 3.8947484538905845 22.328186317908617 114.05815255987864 6 -1 10
5865 0 1 0 4.459310946978474 18.608101600592992 114.14218699737066 6 -1 10
5866 0 1 0 5.895987739556236 18.546981544214958 113.87472886334712 6 -1 10
5638 0 1 0 1.7609487001767774 26.055064083467276 114.3502161300186 6 -1 10
5869 0 1 0 4.5012340450781245 21.050044737697803 113.95794708141206 6 -1 10
5870 0 1 0 5.9373722193052645 20.996931164036116 113.6353622632578 6 -1 10
5871 0 1 0 6.604623515197234 19.739874181553027 113.69999422825568 6 -1 10
5633 0 1 0 0.35044889818306635 23.60327201211017 114.49979965262209 6 -1 10
5641 0 1 0 0.3936215851529367 28.516777199108567 114.329593842667 6 -1 10
5640 0 1 0 3.87300724395647 24.813222984128835 114.22455008343961 6 -1 10
5642 0 1 0 1.8436952160522508 28.470796132691486 114.04002222994964 6 -1 10
5625 0 1 0 0.28222441435537476 18.626864105694636 114.69175808716304 6 -1 10
5872 0 1 0 8.044494287399564 19.797507589452863 113.7017693012599 6 -1 10
6105 0 1 0 8.784058803513332 18.53686674220028 113.80269087192227 6 -1 10
5873 0 1 0 4.638062689856199 23.56427262717939 114.0592288853614 6 -1 10
5645 0 1 0 0.41022389765455997 30.943158774093348 113.9983437608191 6 -1 10
5629 0 1 0 0.28472663510762064 21.166977076036993 114.61116303775104 6 -1 10
5875 0 1 0 6.70186539510387 22.27330368907521 113.54686016929544 6 -1 10
5643 0 1 0 2.4895238298210014 27.28042804066396 114.12536197007691 6 -1 10
5874 0 1 0 6.056837224795978 23.548475004724956 113.81456608081167 6 -1 10
5649 0 1 0 0.3642348397074603 33.427953598421205 113.73079738759358 6 -1 10
5876 0 1 0 8.080707694960324 22.246906904515896 113.41671350459633 6 -1 10
5877 0 1 0 4.59480251039282 26.023098803721204 114.04722033255717 6 -1 10
5647 0 1 0 2.5299740342058947 29.711793395121138 113.84848141629813 6 -1 10
5644 0 1 0 3.886654465280605 27.255711740646493 113.97101615409473 6 -1 10
5646 0 1 0 1.7841664848971 30.962462771973 113.84782390560561 6 -1 10
6109 0 1 0 8.78817936373783 20.989154888897072 113.56031557785484 6 -1 10
5650 0 1 0 1.8267821437445029 33.41799439532113 113.63785345556262 6 -1 10
5648 0 1 0 3.9419908869606393 29.67872480522073 113.73923754459096 6 -1 10
5651 0 1 0 2.5648027522576426 32.22322118946071 113.71714097707884 6 -1 10
5879 0 1 0 6.71985028905652 24.74208682587807 113.66794328161585 6 -1 10
5881 0 1 0 4.634807796180543 28.444737380886114 113.83213815451897 6 -1 10
5878 0 1 0 6.024004216132922 25.98723992527411 113.82574195700757 6 -1 10
5882 0 1 0 6.025151380985504 28.40846997705973 113.56911359925816 6 -1 10
5653 0 1 0 0.41470211833274145 35.91299033979554 113.57002682902208 6 -1 10
5880 0 1 0 8.099900291017136 24.738525123324315 113.4185299133477 6 -1 10
5883 0 1 0 6.722962112936881 27.189539492695882 113.6135799213223 6 -1 10
5885 0 1 0 4.635843083755955 30.9709260899994 113.67997614716211 6 -1 10
5652 0 1 0 3.9454296256478956 32.17610812301341 113.60651271809981 6 -1 10
5654 0 1 0 1.8119851676865952 35.90914445240265 113.31797642738883 6 -1 10
5884 0 1 0 8.138223220519551 27.21752649861535 113.46691690275507 6 -1 10
6117 0 1 0 8.813633237639806 25.983721042165218 113.33563804482145 6 -1 10
5887 0 1 0 6.73426109501567 29.676438223315337 113.55125339199479 6 -1 10
5655 0 1 0 2.52630957673849 34.66588758762471 113.47621857797049 6 -1 10
5886 0 1 0 6.08459712087795 30.941381793846734 113.44718661737186 6 -1 10
5918 0 1 0 6.055488391951312 50.67578141212044 111.40988331402161 6 -1 10
5928 0 1 0 8.179141215389846 54.28758541598179 110.59052552061874 6 -1 10
5897 0 1 0 4.617753796771198 38.28481828266696 112.59120770171322 6 -1 10
5660 0 1 0 3.9223887460957156 37.08246837042288 112.75646259312961 6 -1 10
5664 0 1 0 3.9904126048028554 39.54898253758385 112.79041832318164 6 -1 10
5901 0 1 0 4.709542224264104 40.77096093642551 112.5473492451013 6 -1 10
5663 0 1 0 2.6113361607236603 39.553267403081854 112.99708530390572 6 -1 10
5659 0 1 0 2.5624898891770496 37.11036662909224 113.09471538899572 6 -1 10
5658 0 1 0 1.8765037782728335 38.32914401907265 113.15186241555396 6 -1 10
5662 0 1 0 1.8784052706422476 40.827109996202346 112.99827791492272 6 -1 10
5902 0 1 0 6.07492729398754 40.758339492292855 112.26624488700887 6 -1 10
5903 0 1 0 6.755220419812849 39.47660936306905 112.15396310358138 6 -1 10
5904 0 1 0 8.146046868883928 39.47849661002019 111.83874815270825 6 -1 10
6137 0 1 0 8.849183972051343 38.269379078048765 111.93281285089333 6 -1 10
5924 0 1 0 8.222280260597193 51.86265657877731 111.05816843001462 6 -1 10
5927 0 1 0 6.733789339196964 54.314445660047134 110.79665808422808 6 -1 10
6141 0 1 0 8.820844480534841 40.73897047861702 111.64585676550118 6 -1 10
5899 0 1 0 6.703403791559844 36.98669120935381 112.24779868374354 6 -1 10
5900 0 1 0 8.135153402001329 37.05030837709686 112.12968881077565 6 -1 10
5898 0 1 0 6.017395939454682 38.223941653143726 112.25042693786905 6 -1 10
5667 0 1 0 2.5376850942252176 42.07128091238986 112.77199410652402 6 -1 10
5668 0 1 0 3.9829190464000646 42.0089827760027 112.663001373323 6 -1 10
5905 0 1 0 4.708466285536712 43.25559781808815 112.45387287613784 6 -1 10
5672 0 1 0 3.944874829619901 44.481449122557684 112.31138726819509 6 -1 10
5909 0 1 0 4.675238678333566 45.67605046210007 112.01913977588964 6 -1 10
5671 0 1 0 2.5198276810855176 44.51652119462904 112.51442498883011 6 -1 10
5666 0 1 0 1.7920302534631516 43.313571182422976 112.77244532829422 6 -1 10
5670 0 1 0 1.7809755059298829 45.76906659638113 112.44996420006915 6 -1 10
5906 0 1 0 6.078297682242739 43.25907136555461 112.13057913541384 6 -1 10
5910 0 1 0 6.075422224135932 45.673618089339136 111.94424179247063 6 -1 10
5907 0 1 0 6.78736845445555 41.98770087967295 112.03481416894823 6 -1 10
5911 0 1 0 6.776839902159462 44.44350379681035 111.9699622450599 6 -1 10
5912 0 1 0 8.216180296822953 44.48267216218267 111.8029310321994 6 -1 10
5908 0 1 0 8.167329833186491 41.956911058385074 111.83286185698229 6 -1 10
6145 0 1 0 8.916365305716932 43.182455706041374 111.76638120284868 6 -1 10
6161 0 1 0 8.888647435928807 53.080911281160624 110.74044468994214 6 -1 10
6149 0 1 0 8.889841404460928 45.67994888943837 111.4817192079653 6 -1 10
5923 0 1 0 6.75769029141656 51.86360324361994 111.17764312029452 6 -1 10
5675 0 1 0 2.5398496713687897 46.99601875370936 112.17799155808557 6 -1 10
5680 0 1 0 3.943465291886661 49.43572886937103 111.75670374520666 6 -1 10
5676 0 1 0 3.96483568958859 46.939175760656376 112.05420844660343 6 -1 10
5913 0 1 0 4.655150487111433 48.178582378367636 111.88681148399988 6 -1 10
5679 0 1 0 2.5136806310591626 49.46170760472565 111.77592368465093 6 -1 10
5674 0 1 0 1.7822179723689315 48.25924883474231 112.04375364332428 6 -1 10
5914 0 1 0 6.040626840662553 48.18414080922738 111.76211858657359 6 -1 10
5919 0 1 0 6.78175378102882 49.48493409126174 111.52624329704739 6 -1 10
5915 0 1 0 6.782708058315346 46.952295518577635 111.7949017531016 6 -1 10
5920 0 1 0 8.175552740117409 49.410944321330476 111.2584819573525 6 -1 10
6153 0 1 0 8.861723696757489 48.16349138827878 111.2556063409984 6 -1 10
5922 0 1 0 6.025906075062837 53.08937777952214 111.08286020283735 6 -1 10
5916 0 1 0 8.164581227969286 46.94876909916814 111.5702981178082 6 -1 10
6157 0 1 0 8.891591714733524 50.621533194248926 111.16827369772231 6 -1 10
5921 0 1 0 4.601837404041985 53.117296835025606 111.2609974371448 6 -1 10
5917 0 1 0 4.649171601296526 50.67134955166202 111.53716542892329 6 -1 10
5688 0 1 0 3.864354436013762 54.31134105777135 111.02702778974513 6 -1 10
5684 0 1 0 3.927474735143537 51.86122718620421 111.55222657065536 6 -1 10
5687 0 1 0 2.4845675587418126 54.39766169658877 111.26641177874609 6 -1 10
5683 0 1 0 2.500720348227064 51.912376990881754 111.57259149346788 6 -1 10
5678 0 1 0 1.7586009117486974 50.65749134342261 111.61619088351003 6 -1 10
5682 0 1 0 1.7574410251530634 53.09865920829686 111.48839185371745 6 -1 10
5661 0 1 0 0.5091911180403211 40.833384658076376 113.19195887306212 6 -1 10
5681 0 1 0 0.33104885631951936 53.11544322841012 111.5824287507042 6 -1 10
5677 0 1 0 0.3602878141186917 50.63513637892728 111.67991617892996 6 -1 10
5665 0 1 0 0.39228039330112713 43.304872811744126 112.90721029462323 6 -1 10
5673 0 1 0 0.38175576504527986 48.21997972374643 112.20252723261093 6 -1 10
5669 0 1 0 0.4046994223898553 45.79686640961463 112.55480839961939 6 -1 10
5657 0 1 0 0.4518388653731987 38.36317063637328 113.46410858911204 6 -1 10
5929 0 1 0 4.487858857176931 57.91113850126515 110.0619864331971 6 -1 10
5930 0 1 0 5.934323484154566 57.880264493249065 109.90647132769836 6 -1 10
5935 0 1 0 6.63996285713176 59.07731698312556 109.60135334803819 6 -1 10
5931 0 1 0 6.705858676155815 56.62867714198893 109.93374771278839 6 -1 10
5932 0 1 0 8.088771420098077 56.64775698999143 109.81605538732862 6 -1 10
5936 0 1 0 8.081075079651598 59.05722665898519 109.52414294813518 6 -1 10
6169 0 1 0 8.792461426207675 57.83051174533434 109.5795752423928 6 -1 10
5703 0 1 0 2.474113138575674 64.06708245789403 110.1032186607874 6 -1 10
5699 0 1 0 2.424295697987243 61.624168652965686 110.25695042702233 6 -1 10
6165 0 1 0 8.844486202935773 55.41544782833974 110.11852903523133 6 -1 10
5937 0 1 0 4.5945988531630055 62.8289623047731 109.89025618492111 6 -1 10
5700 0 1 0 3.866183625126561 61.64173939809503 109.89831364866399 6 -1 10
5933 0 1 0 4.5597743071482855 60.40254725904879 109.78601424619355 6 -1 10
5704 0 1 0 3.8788297135786407 64.0731725430932 109.92611254516653 6 -1 10
5938 0 1 0 5.975468821153947 62.76261298335684 109.60605967799034 6 -1 10
5934 0 1 0 5.953995239337307 60.330333620314896 109.62763039721183 6 -1 10
5939 0 1 0 6.648388882240403 61.569723949661515 109.53922041125625 6 -1 10
5940 0 1 0 8.112620602085645 61.5788582960007 109.36448042203303 6 -1 10
6177 0 1 0 8.830845311907062 62.78997641683417 109.36904533691435 6 -1 10
6173 0 1 0 8.806048196607385 60.31360643219816 109.45387308046593 6 -1 10
5926 0 1 0 5.9845243282868 55.47452769500854 110.55058788809883 6 -1 10
5694 0 1 0 1.7124730384492568 60.39342811110633 110.35732892532447 6 -1 10
5944 0 1 0 8.0836841047971 64.01414795433676 109.44513980407821 6 -1 10
5943 0 1 0 6.660044374500248 64.001525302048 109.59777983113688 6 -1 10
5941 0 1 0 4.571604200663056 65.34738174683149 109.87512338727251 6 -1 10
5945 0 1 0 4.540040884474433 67.790835298103 109.52786526819918 6 -1 10
5708 0 1 0 3.805199081850404 66.54120315774908 109.85134127717856 6 -1 10
5707 0 1 0 2.4045769563903296 66.53734069180726 109.96320131694782 6 -1 10
5706 0 1 0 1.6735574464027183 67.81106044874497 109.89403178399539 6 -1 10
5946 0 1 0 5.939155019515883 67.80321393547824 109.24850037459369 6 -1 10
5942 0 1 0 5.944474491385882 65.28588087664228 109.54746001092596 6 -1 10
5947 0 1 0 6.6191226283420495 66.52798520054608 109.35432734734778 6 -1 10
5948 0 1 0 8.0504332297796 66.47556656685981 109.22890313747233 6 -1 10
6181 0 1 0 8.78163076716506 65.26926202868712 109.29436504104123 6 -1 10
6185 0 1 0 8.755450739615918 67.72039163778335 109.08173740622262 6 -1 10
5690 0 1 0 1.7338392011780654 57.98042959925428 110.57448809424052 6 -1 10
5702 0 1 0 1.7189330469214412 65.30625451440494 110.14881919789538 6 -1 10
5712 0 1 0 3.759618005990395 68.98292485828605 109.38201717172473 6 -1 10
5949 0 1 0 4.501324664879568 70.2480797723913 109.27640588399224 6 -1 10
5953 0 1 0 4.5916605768919805 72.72277822196438 109.09247325229563 6 -1 10
5716 0 1 0 3.840837117691292 71.50527647565295 109.31957335509796 6 -1 10
5715 0 1 0 2.435182018389452 71.47502401432114 109.51392787399232 6 -1 10
5711 0 1 0 2.3903719972068598 69.013985254403 109.66739005556981 6 -1 10
5714 0 1 0 1.7115236000952052 72.70275353067558 109.58762407782095 6 -1 10
5710 0 1 0 1.6878908034694873 70.23571525113617 109.69774667384883 6 -1 10
5686 0 1 0 1.7349054540354971 55.51614759236383 110.9981797286518 6 -1 10
6189 0 1 0 8.787257004244351 70.22431130379005 108.798573035172 6 -1 10
5952 0 1 0 8.118559087226046 69.00690287988895 109.0083327093161 6 -1 10
6193 0 1 0 8.809746161076031 72.71868914760233 108.60379334255663 6 -1 10
5955 0 1 0 6.719052267195053 71.46300165598372 108.8841237167731 6 -1 10
5954 0 1 0 5.974552671891155 72.72775464742412 108.9665571631468 6 -1 10
5950 0 1 0 5.925019925716091 70.22780149910186 109.03086523656705 6 -1 10
5951 0 1 0 6.632541543420476 68.97236093977448 109.08251753929356 6 -1 10
5956 0 1 0 8.116538368499343 71.44771553232104 108.75745001823054 6 -1 10
5698 0 1 0 1.7543565355584396 62.86204286306616 110.32377454993073 6 -1 10
5925 0 1 0 4.572765154732996 55.514455274436166 110.6829807648996 6 -1 10
5692 0 1 0 3.8141209775556595 56.73195888970257 110.44920280642498 6 -1 10
5696 0 1 0 3.8351350757365803 59.16694730665644 109.99959789840766 6 -1 10
5691 0 1 0 2.3785016300907813 56.74510031026286 110.64851071950136 6 -1 10
5695 0 1 0 2.4212600170072545 59.15141753924764 110.28839667464767 6 -1 10
5689 0 1 0 0.28269581390062637 57.945664918215634 110.83508600976472 6 -1 10
5685 0 1 0 0.3096200509951702 55.58894126804995 111.29274391790763 6 -1 10
5697 0 1 0 0.2968331878362324 62.89913966337695 110.56142692399602 6 -1 10
5709 0 1 0 0.28719743708618906 70.27446948118738 109.93561629421635 6 -1 10
5693 0 1 0 0.26867985010632894 60.39977587280133 110.58894259999445 6 -1 10
5701 0 1 0 0.31000934851574746 65.34034738673367 110.30854869327538 6 -1 10
5713 0 1 0 0.28206892070670664 72.78037494509644 109.7324114127595 6 -1 10
5705 0 1 0 0.2912103750602469 67.80293062180885 110.16465887859664 6 -1 10
5957 0 1 0 4.509818258601661 75.22126834007202 109.00054431160552 6 -1 10
5961 0 1 0 4.539230897041053 77.65886650516299 108.76000908810194 6 -1 10
5720 0 1 0 3.8661308490869772 73.92542146293844 109.13567252989348 6 -1 10
5724 0 1 0 3.8320061925403746 76.45113329109233 108.95294624747194 6 -1 10
5719 0 1 0 2.4002130875153833 73.93262669085864 109.35572282905004 6 -1 10
5723 0 1 0 2.3894808067424878 76.42848359974442 109.06473327896153 6 -1 10
5718 0 1 0 1.6826922324636682 75.19204987975172 109.28776882440924 6 -1 10
5722 0 1 0 1.6879610591951866 77.63539773545153 108.98560907399256 6 -1 10
5958 0 1 0 5.941183948948216 75.21221721393034 108.83129750760048 6 -1 10
5962 0 1 0 5.964721560677828 77.63711333493767 108.56600158739134 6 -1 10
5963 0 1 0 6.670703032222642 76.39581038134682 108.63025940205038 6 -1 10
5959 0 1 0 6.663958572038827 73.93257182475813 108.76481100100638 6 -1 10
5960 0 1 0 8.049281744631331 73.92934473081327 108.5874085341001 6 -1 10
5964 0 1 0 8.092810375975102 76.37506057612909 108.46601008077333 6 -1 10
5983 0 1 0 6.650644762445542 88.71848832577517 107.79059585886299 6 -1 10
6197 0 1 0 8.808802556365231 75.11537350710664 108.5037878042149 6 -1 10
6201 0 1 0 8.74657996334101 77.60079038117314 108.23223818811748 6 -1 10
5987 0 1 0 6.689611696070585 91.21290194081944 107.67941459846637 6 -1 10
5969 0 1 0 4.544807615282318 82.59569988396628 108.37163178942804 6 -1 10
5965 0 1 0 4.520561664964888 80.09371775297045 108.59381606852776 6 -1 10
5732 0 1 0 3.82449077238557 81.3521618991223 108.61334228770528 6 -1 10
5728 0 1 0 3.8304008282444557 78.88552177401297 108.70783479172495 6 -1 10
5727 0 1 0 2.4209717483201083 78.87331699181982 108.83025820781661 6 -1 10
5731 0 1 0 2.402531616554636 81.3847474436491 108.76765463448129 6 -1 10
5726 0 1 0 1.7219015976651668 80.13424533766822 108.89758662671524 6 -1 10
5730 0 1 0 1.7198492984816671 82.64729690023722 108.8660547196006 6 -1 10
5970 0 1 0 5.966918772655006 82.56798008031365 108.28717430291681 6 -1 10
5966 0 1 0 5.9631512873269825 80.0796655840137 108.43050316802218 6 -1 10
5967 0 1 0 6.620487464331222 78.81487804221521 108.35858745701519 6 -1 10
5971 0 1 0 6.677281979361588 81.34681656751464 108.32751230287377 6 -1 10
5968 0 1 0 8.06285771883851 78.82905222218783 108.29074955861667 6 -1 10
5972 0 1 0 8.085441372740974 81.31766745978052 108.12725978724454 6 -1 10
6205 0 1 0 8.749602597926636 80.04832880263434 108.06715119430248 6 -1 10
5982 0 1 0 6.022183358967817 89.95227359171764 107.8265453625759 6 -1 10
6209 0 1 0 8.779064705147828 82.54857521551608 107.94515516158657 6 -1 10
5978 0 1 0 5.940541922858771 87.5062907225034 107.95985532027953 6 -1 10
5736 0 1 0 3.839630941196936 83.8086874285685 108.48547554095323 6 -1 10
5973 0 1 0 4.497003899810244 85.05888702822169 108.23401402837733 6 -1 10
5740 0 1 0 3.816478038777649 86.3084700064302 108.41338905792024 6 -1 10
5735 0 1 0 2.436137905695719 83.83904008438502 108.66572210971536 6 -1 10
5739 0 1 0 2.390779943920998 86.32011223915468 108.5873964861093 6 -1 10
5734 0 1 0 1.734918110210543 85.09652352078197 108.74594802673633 6 -1 10
5974 0 1 0 5.937033854766477 85.03655144424529 108.05910456186561 6 -1 10
5975 0 1 0 6.6106846860833635 83.78853998765 107.99428021927129 6 -1 10
5979 0 1 0 6.6819814287639385 86.25943623969356 107.8833146950598 6 -1 10
5976 0 1 0 8.053863761838684 83.78894141520809 107.8836434913412 6 -1 10
5980 0 1 0 8.112197256928736 86.2713679006492 107.76500865027666 6 -1 10
6213 0 1 0 8.76980553999396 85.04476892093876 107.66328785599316 6 -1 10
6217 0 1 0 8.78403764498562 87.49115275504265 107.56015740149599 6 -1 10
5977 0 1 0 4.520906468799821 87.51807698710591 108.23858550812628 6 -1 10
5981 0 1 0 4.612221034115966 89.98761234168848 107.9993293804937 6 -1 10
5748 0 1 0 3.872665650276196 91.2331783910289 108.00358697392461 6 -1 10
5744 0 1 0 3.862585193485426 88.79517263947662 108.2305350127516 6 -1 10
5747 0 1 0 2.443969083711709 91.26256749341547 108.2034431687115 6 -1 10
5743 0 1 0 2.4158949037306616 88.82506200226817 108.38245846449803 6 -1 10
5738 0 1 0 1.7300818944627236 87.5776801557882 108.64362704361052 6 -1 10
5742 0 1 0 1.6832182374954177 90.0336543359102 108.26838046268496 6 -1 10
5984 0 1 0 8.087038946221853 88.71373171718457 107.57131510529885 6 -1 10
6221 0 1 0 8.822917345137608 89.96210889081397 107.56946857327425 6 -1 10
5988 0 1 0 8.155712433249205 91.22907681576805 107.62502819075047 6 -1 10
5733 0 1 0 0.3498568541519043 85.11165652370624 109.00229861079583 6 -1 10
5725 0 1 0 0.3306943344801678 80.1275875749729 109.24575400090951 6 -1 10
5729 0 1 0 0.3034302443258559 82.62361993494139 109.15234832285648 6 -1 10
5741 0 1 0 0.26007328061161505 90.07151509890022 108.46685381677845 6 -1 10
5737 0 1 0 0.2794585949310868 87.58695909474268 108.69276313520473 6 -1 10
5717 0 1 0 0.23864579142245548 75.20538918608744 109.49992729494171 6 -1 10
5721 0 1 0 0.24429490098807327 77.63973730654487 109.22053823027663 6 -1 10
5985 0 1 0 4.518683925786905 92.48131970545839 107.92230003356555 6 -1 10
5989 0 1 0 4.604940849652174 94.93355385548298 107.87099190112015 6 -1 10
5752 0 1 0 3.818754568343238 93.72850149481675 107.99255332339543 6 -1 10
5756 0 1 0 3.9096953805211867 96.16126861170432 107.82282091217587 6 -1 10
5751 0 1 0 2.4009149879259963 93.74420120398653 108.1559798373584 6 -1 10
5755 0 1 0 2.4510802722993557 96.20984874896932 107.7584286630375 6 -1 10
5750 0 1 0 1.716986580443346 94.99646671414396 107.98183120382569 6 -1 10
5746 0 1 0 1.689656134818013 92.49652475554718 108.20003413137707 6 -1 10
5986 0 1 0 6.0085537333545735 92.44762241110703 107.80527075439578 6 -1 10
5990 0 1 0 6.026594444228927 94.87835884685138 107.83984859029475 6 -1 10
5991 0 1 0 6.75261247506037 93.6813946958147 107.76201176374668 6 -1 10
5995 0 1 0 6.794182458486081 96.13481597780272 107.72075256170035 6 -1 10
5992 0 1 0 8.17243471358069 93.64657032764313 107.49877190178917 6 -1 10
6229 0 1 0 8.850133605354532 94.89499744459177 107.30045485545514 6 -1 10
6225 0 1 0 8.871878785789626 92.42169348263947 107.49113365032952 6 -1 10
5772 0 1 0 8.296592700983513 105.99573160541166 107.90374475157873 6 -2 10
5771 0 1 0 6.831652678449104 106.0007454197298 107.86992987304049 6 -2 10
5996 0 1 0 8.165617985978118 96.1563260060463 107.40424088053797 6 -1 10
5993 0 1 0 4.610996229596052 97.4177748630597 107.72350890164653 6 -1 10
5997 0 1 0 4.624345708411118 99.86285756703559 107.70188637644189 6 -1 10
5760 0 1 0 3.882283222602877 98.63590605791225 107.7098840775146 6 -1 10
5759 0 1 0 2.4929407110666757 98.66007869920831 107.53688079745965 6 -1 10
5758 0 1 0 1.7469066954887245 99.87047600950771 107.53331995687401 6 -1 10
5754 0 1 0 1.7253446821250087 97.45021847886997 107.62500577928614 6 -1 10
5524 0 1 0 3.9399505965614043 101.1141300987143 107.65210336591375 6 -2 10
5523 0 1 0 2.4861096952791666 101.07795440629724 107.63730881762707 6 -2 10
5998 0 1 0 6.0557906380235575 99.87549849475803 107.79088679614532 6 -1 10
5994 0 1 0 6.027425606154709 97.37876150873902 107.73167634423434 6 -1 10
5999 0 1 0 6.750168953789053 98.61673545395843 107.73865143987324 6 -1 10
6000 0 1 0 8.155822030828798 98.58169247972116 107.61953836283135 6 -1 10
6237 0 1 0 8.894703405719339 99.80402333293941 107.66448592918604 6 -1 10
6233 0 1 0 8.91598772894664 97.39757327327803 107.46548096914034 6 -1 10
5774 0 1 0 6.134849180832652 109.70697154185478 108.01300714502742 6 -2 10
6009 0 1 0 8.991991832740919 107.21458406606347 107.933849589294 6 -2 10
5763 0 1 0 6.779776296656869 101.12283326992925 107.76993361353352 6 -2 10
5764 0 1 0 8.182159226886212 101.09219676189042 107.72762343911748 6 -2 10
5765 0 1 0 4.610850616979395 104.82693694912382 107.73639999783698 6 -2 10
5761 0 1 0 4.585594786341746 102.32565152952418 107.85496448766328 6 -2 10
5528 0 1 0 3.896929508355497 103.57306735042336 107.75062418353379 6 -2 10
5527 0 1 0 2.5265686367273306 103.5466772445433 107.72431806145504 6 -2 10
5522 0 1 0 1.7973440250366581 102.330193169787 107.69573805568264 6 -2 10
5526 0 1 0 1.796844160900344 104.79403892452166 107.73177203501183 6 -2 10
5762 0 1 0 6.003218418645596 102.30045029195445 107.76209687665053 6 -2 10
5766 0 1 0 6.083253643679224 104.80350689365756 107.78347128294753 6 -2 10
5767 0 1 0 6.730321851395942 103.56040777054481 107.79356075471838 6 -2 10
5768 0 1 0 8.1705737744119 103.49560890680982 107.69818549496438 6 -2 10
6001 0 1 0 8.943723899751971 102.30362594705677 107.73543153484304 6 -2 10
6005 0 1 0 8.917559506333282 104.69415959641447 107.80005670370718 6 -2 10
5770 0 1 0 6.127740992531165 107.2340689194071 107.79704309364364 6 -2 10
5530 0 1 0 1.8408479851245783 107.31281618390679 107.59764954202981 6 -2 10
5769 0 1 0 4.634276793503605 107.24520343343983 107.68663843581344 6 -2 10
5773 0 1 0 4.7233790718715145 109.76836321879053 107.82695895856197 6 -2 10
5532 0 1 0 3.901942168663013 106.01859305871506 107.72002900665079 6 -2 10
5536 0 1 0 3.9752064639422158 108.49381433275484 107.73983067832343 6 -2 10
5531 0 1 0 2.5254624073208527 106.00723089625694 107.68951123025082 6 -2 10
5535 0 1 0 2.5671594317903694 108.54303903406202 107.61615474564134 6 -2 10
5534 0 1 0 1.8691444367077674 109.77942831556294 107.52885150599853 6 -2 10
5776 0 1 0 8.244778533193283 108.46540384565311 107.94395337067806 6 -2 10
5775 0 1 0 6.834609700834693 108.4700325875091 107.9082935768457 6 -2 10
6013 0 1 0 8.95957168281391 109.67415464797314 108.14004717891771 6 -2 10
5529 0 1 0 0.4159814223869699 107.31278869636121 107.48762614572287 6 -2 10
5521 0 1 0 0.38116779140908247 102.36485880040829 107.65500886226269 6 -2 10