LAMMPS data file via write_data, version 4 Feb 2025, timestep = 100000, units = metal

6240 atoms
2 atom types

0 51.336 xlo xhi
0 49.4 ylo yhi
0 75 zlo zhi

Masses

1 1.007999999740698
2 15.99899999588435

Atoms # full

4827 0 1 0 1.1697208306930644 2.0592745741666603 5.0360665519438745 1 0 0
4970 0 1 0 3.265261852853078 0.4684477427565908 6.415041537136412 1 0 0
4938 0 1 0 1.5769234869915678 5.30676111687347 5.388810662446897 1 0 0
4936 0 2 0 1.9873480391323144 6.113768188357229 5.679235954983646 1 0 0
4825 0 2 0 0.39054806422955785 2.5898847969672594 5.29889882864288 1 0 0
4969 0 2 0 2.575384817996258 0.2826124891673299 5.753854480445174 1 0 0
4937 0 1 0 2.5003884811350727 5.79087171196861 6.499087390504216 1 0 0
3721 0 2 0 6.356730674619173 1.5179693226180189 7.492058202343618 1 0 0
4826 0 1 0 0.2858413394026158 2.5188475808423045 6.2979543345787645 1 0 0
3812 0 1 0 0.3715107651348933 2.064626090870691 8.527159764192213 1 0 0
5198 0 1 0 5.441563769408745 3.3796189042372577 10.700481229281776 1 0 0
5689 0 2 0 2.3754619346589254 4.572538868410403 10.901389816738337 1 0 0
4843 0 2 0 2.302976461176238 1.1813539700709172 12.280983628423943 1 0 0
5194 0 2 0 3.6062462207151884 2.521569324583437 8.351813554205416 1 0 0
5315 0 1 0 1.0609722587294146 4.710549870242018 9.737792311379016 1 0 0
5197 0 2 0 5.068516890600217 4.2389140318310075 10.942370140680463 1 0 0
5196 0 1 0 2.8049633217611434 1.9138637084381034 8.29576848122967 1 0 0
3700 0 2 0 4.144331969855625 2.9450068900334925 13.345666577788432 1 0 0
5690 0 1 0 2.426668557213759 3.786207735990934 11.480934954140071 1 0 0
5199 0 1 0 4.931363342950033 4.225306248388212 11.922163079840507 1 0 0
5319 0 1 0 5.73850589666743 6.05324505151614 9.944189562629248 1 0 0
4844 0 1 0 1.406777178671348 1.1578776213180053 12.694059051037563 1 0 0
5666 0 1 0 3.540808590958384 4.1976595862235815 7.933860585479146 1 0 0
5195 0 1 0 4.330422319857717 2.1565859004726153 7.797824933020772 1 0 0
4845 0 1 0 2.5704518618856933 0.27401984102422067 12.49715396638593 1 0 0
5385 0 1 0 1.917460762702604 1.0141359429250993 10.416342343645129 1 0 0
5383 0 2 0 1.7392203927744856 0.7048504918335697 9.44994411980406 1 0 0
5691 0 1 0 3.29210747139233 4.553051512903597 10.562633728362277 1 0 0
5314 0 2 0 0.2329893433726503 4.761847663858429 9.256419192738367 1 0 0
5667 0 1 0 4.3629873141559745 5.60505990319785 8.140733543575152 1 0 0
5665 0 2 0 3.5221427593587484 5.175279579151116 7.845185230691536 1 0 0
3701 0 1 0 3.7628585910754286 3.4719291251369375 14.059952829422953 1 0 0
3702 0 1 0 3.4744658585793577 2.2331900629614725 13.217301287305594 1 0 0
4040 0 1 0 0.6134466555915256 1.9949084067184277 14.524396079750927 1 0 0
5316 0 1 0 0.21858846844712446 5.713383093858329 9.134438796841424 1 0 0
3967 0 2 0 0.9286074484472632 4.880961717487907 14.27277106639454 1 0 0
3969 0 1 0 0.44172294370762827 4.02649508552843 14.191024289413287 1 0 0
3968 0 1 0 0.13870968865036448 5.506882778657478 14.374080244958678 1 0 0
4039 0 2 0 0.0197322232939381 2.2084351080793345 13.873209972935427 1 0 0
4817 0 1 0 2.5145699889239577 6.1565006310584325 11.75893781693893 1 0 0
3723 0 1 0 6.380231400545409 1.0004117755909834 8.308672323176662 1 0 0
5414 0 1 0 4.459147513458159 0.041050910248721095 14.934633580402991 1 0 0
3539 0 1 0 4.401563712016288 3.9182441886222024 18.84031624255375 1 0 0
3585 0 1 0 3.9212846677120705 2.5996467610013765 20.694785183335664 1 0 0
5177 0 1 0 3.2304479172326834 4.648866905556516 21.31433917525293 1 0 0
5188 0 2 0 6.338791801807548 6.1685292926021145 20.329773384329712 1 0 0
5150 0 1 0 1.4997955044906415 1.9534275678856816 20.738177810363496 1 0 0
3540 0 1 0 5.149190427683649 4.614241886173336 20.11037768710306 1 0 0
5122 0 2 0 1.1854483822426591 0.9361249302603949 16.272226795937105 1 0 0
3824 0 1 0 4.1220197984449225 2.7006661793114066 16.968139942561052 1 0 0
3825 0 1 0 3.2968215829563072 4.031713996293174 16.765321015794044 1 0 0
5124 0 1 0 0.963501357043059 0.0032322420591178124 15.979406869330806 1 0 0
5152 0 2 0 1.3636765110330602 4.825213334248696 17.258916323276377 1 0 0
5149 0 2 0 0.6362179992208871 1.695006220705353 20.30468713270687 1 0 0
5704 0 2 0 4.204187943494418 0.9737910999746203 16.646551594752975 1 0 0
5151 0 1 0 0.32036067772239896 0.8240634164150558 20.480999643087483 1 0 0
5176 0 2 0 2.9522279327146608 5.248529765258423 22.042934959263132 1 0 0
3823 0 2 0 4.156148652986277 3.7041233966075167 17.08012686250321 1 0 0
3538 0 2 0 4.411329205426712 4.009691819137786 19.85107203851274 1 0 0
5154 0 1 0 0.7334557943363008 5.382143474903605 17.848346536343612 1 0 0
5588 0 1 0 5.5199806393816475 4.1910704611739265 16.07834760042051 1 0 0
5706 0 1 0 3.2598745223311942 0.8893552065998886 16.857958703480843 1 0 0
5123 0 1 0 0.4809172991860561 1.187187430930672 16.95302645239936 1 0 0
3583 0 2 0 3.686717976601161 1.8625748872150467 21.323924087437803 1 0 0
5111 0 1 0 6.215757737094424 2.831862324734508 20.469318657375943 1 0 0
5153 0 1 0 0.8819503897924749 4.869116027884706 16.390442047540322 1 0 0
5705 0 1 0 4.557867767302737 0.5267831733530044 17.437219519481854 1 0 0
3584 0 1 0 4.0745894544576435 2.1235895877935396 22.15437815676598 1 0 0
4697 0 1 0 4.216686524137879 0.16051499240939993 20.594846693585882 1 0 0
4704 0 1 0 1.715210278099939 3.116803896545523 24.12735265767004 1 0 0
4702 0 2 0 1.338197496766306 3.804087688584263 23.538004673759236 1 0 0
5334 0 1 0 1.466282329068213 2.9994508165370974 28.476841596221146 1 0 0
3511 0 2 0 4.92280595142758 4.9520025427205905 24.28826783869545 1 0 0
5332 0 2 0 1.4270234746691282 2.1226029087116287 27.924046971436198 1 0 0
5800 0 2 0 3.7870551780323973 0.2810624489228332 28.250756338662487 1 0 0
5802 0 1 0 3.6296671045267037 0.49263957364894956 27.335251319425602 1 0 0
419 0 1 0 2.0122286195973085 2.0102390636426217 26.141754784848743 0 0 0
3532 0 2 0 0.7081819321659558 5.786114107653246 25.554235058357897 1 0 0
4703 0 1 0 0.43609475961193717 3.555895572081739 23.22716836325644 1 0 0
4963 0 2 0 4.554810099134591 0.4584566806666697 24.889708880314938 1 0 0
4287 0 1 0 3.9097382593825465 4.907806393653108 27.326097658801956 1 0 0
4285 0 2 0 4.916329371588409 4.83517356511282 27.003698748219023 1 0 0
418 0 2 0 2.1515955578092636 1.783868017904101 25.1581220531237 0 0 0
3534 0 1 0 0.8907845688699125 5.229188179717849 24.752180264311264 1 0 0
4720 0 2 0 2.4230531690476926 5.218753391176653 27.552520602706103 1 0 0
5333 0 1 0 2.125306448448515 1.63962939226516 28.445406241185285 1 0 0
4721 0 1 0 1.788397736634893 5.510955340279704 26.83935526291657 1 0 0
5331 0 1 0 6.383557950360523 2.5409706442820577 23.230285256948257 1 0 0
3513 0 1 0 4.801446510489549 5.130555185116629 25.230629523887224 1 0 0
4722 0 1 0 2.4350992354781114 5.947157827650607 28.21255789777551 1 0 0
3512 0 1 0 4.070788931458849 5.059393906208248 23.86137558230222 1 0 0
420 0 1 0 2.944295133305596 1.217627524730282 25.095414800701068 0 0 0
5130 0 1 0 5.972321366577987 3.1723628070155403 26.82050928713358 1 0 0
5329 0 2 0 5.48196569308296 2.544653930427931 23.446756675242597 1 0 0
5330 0 1 0 5.130098516533116 3.396665279018628 23.876745988523126 1 0 0
5128 0 2 0 6.385603369341298 2.328256874949922 26.485661849193338 1 0 0
4964 0 1 0 5.031451996313672 1.108738161899508 24.334856635963003 1 0 0
4286 0 1 0 5.275801166375684 5.603557792380448 27.406385551625906 1 0 0
4965 0 1 0 5.083251601765616 0.4271553322994197 25.696307846867622 1 0 0
5178 0 1 0 2.400306998061202 4.649174207709959 22.644004983713497 1 0 0
4207 0 2 0 2.238216287112041 11.877540952495588 5.207833500714888 1 0 0
4209 0 1 0 1.9344890321587729 11.867683594389199 6.19789614561854 1 0 0
5326 0 2 0 1.5868382498396116 8.889520231784099 5.335074356485725 1 0 0
5799 0 1 0 2.638295827311231 9.126037221663324 6.832858064629432 1 0 0
5328 0 1 0 2.0976823009602166 8.099381376237499 5.044374266243977 1 0 0
5327 0 1 0 1.9678570366793955 9.620106852298694 4.761767962173801 1 0 0
3887 0 1 0 0.3683922607463204 6.830340047586242 6.631038703050067 1 0 0
5797 0 2 0 3.3764198907730965 8.976296325706418 7.416251686361495 1 0 0
5798 0 1 0 3.392171873459641 8.005621039274809 7.358591538963254 1 0 0
3627 0 1 0 1.8241415855859067 7.94581457549648 9.844925839232692 1 0 0
5527 0 2 0 6.128897944962107 10.301630891748383 8.807590501636062 1 0 0
5317 0 2 0 5.769464648280591 6.764735756185737 9.248975985292814 1 0 0
5576 0 1 0 6.010481239091111 10.74122504644238 11.348879256990948 1 0 0
5161 0 2 0 3.7847317741380624 8.652085890982287 10.244405379801519 1 0 0
5163 0 1 0 3.47064517338583 9.0996875186112 9.390597647695296 1 0 0
5014 0 2 0 3.6412017033008963 11.169896777379806 13.764570212966534 1 0 0
3867 0 1 0 3.0829850148959568 11.936175157293727 8.184312037314243 1 0 0
5016 0 1 0 4.262866847986387 11.717009246235985 14.279436180806258 1 0 0
4087 0 2 0 0.28964126583024047 7.627928361372573 13.95447475404184 1 0 0
5577 0 1 0 5.060062774111503 9.542363777876886 11.159338064343572 1 0 0
4816 0 2 0 2.7816879264607537 6.886545719140309 12.371606322164133 1 0 0
3626 0 1 0 0.6744346995011713 8.056128288726983 8.828705343417067 1 0 0
5162 0 1 0 4.3945049208416105 7.961451646398812 9.822925770086059 1 0 0
3865 0 2 0 4.058237666506463 12.039904084067107 8.285798519984116 1 0 0
5575 0 2 0 5.379352245942418 10.20898244276422 11.85301340069684 1 0 0
5015 0 1 0 4.13815153755254 10.745612224829008 13.038337361592479 1 0 0
5528 0 1 0 6.1440325638697875 9.382352600161692 8.514476729235577 1 0 0
5356 0 2 0 4.399446731622351 6.263459733555636 14.846563803585036 1 0 0
4818 0 1 0 3.0396612147039606 7.678805934153877 11.780116760008639 1 0 0
3826 0 2 0 1.2014563450392972 12.05944500339172 8.310693686236945 1 0 0
5357 0 1 0 3.838947963216236 6.606285533478987 14.12180196030128 1 0 0
4089 0 1 0 1.0971910364080713 7.465855210392065 13.344901961619561 1 0 0
3786 0 1 0 2.7154031490221975 10.004717923062948 14.785589854216198 1 0 0
5529 0 1 0 5.272051990591187 10.677632550732541 8.419637793092171 1 0 0
5391 0 1 0 6.160356392177503 6.602227473487431 14.404673920778109 1 0 0
3828 0 1 0 0.39616091426172634 11.546638060947842 8.103331283190844 1 0 0
3625 0 2 0 0.87965814611432 8.1431473485278 9.768304925813977 1 0 0
4862 0 1 0 6.172909302988334 6.906874691619004 21.84011972841738 1 0 0
4017 0 1 0 0.0029631039010098448 7.611514091665963 16.868569049329203 1 0 0
5749 0 2 0 1.455090458166485 12.064988552874777 17.001181661252566 1 0 0
3717 0 1 0 2.5357955007547752 8.355808307471037 21.332627192301917 1 0 0
5427 0 1 0 4.588952546069425 7.416024665839021 17.685422291764837 1 0 0
5190 0 1 0 6.194669224774138 6.8165453190779495 19.62467820230933 1 0 0
5700 0 1 0 3.418665388713797 10.890263024402609 19.838053809408173 1 0 0
5822 0 1 0 1.1253416141655121 12.12553945860027 20.392132323484393 1 0 0
3715 0 2 0 1.8495354557613926 7.727799789157047 21.001332566461876 1 0 0
3691 0 2 0 3.0794842380815846 7.261094539049329 16.853153746884697 1 0 0
2324 0 1 0 6.300465268738721 11.288198131684252 22.236165251350474 1 0 0
5425 0 2 0 5.3949926872887835 7.724923372686221 18.182980776904525 1 0 0
5750 0 1 0 0.4429970567038792 12.1144436030079 16.855155203576263 1 0 0
5358 0 1 0 3.9553026298578273 6.6707156836729675 15.574271505732687 1 0 0
3692 0 1 0 2.7072053384549046 8.117077093226035 16.621126538885253 1 0 0
5699 0 1 0 4.230323263317943 10.138090331813938 20.784658338332928 1 0 0
3716 0 1 0 2.218104954426874 6.880314160168191 21.254784419909143 1 0 0
5751 0 1 0 1.718582429414436 11.17379359983933 16.627326325239416 1 0 0
3693 0 1 0 2.2809390890041477 6.7674379125188375 17.055419232600062 1 0 0
3960 0 1 0 5.408631183557333 11.052449127274615 18.69669307015821 1 0 0
5698 0 2 0 4.147473467097118 10.248462214153058 19.796820394124378 1 0 0
3735 0 1 0 0.3569445695521805 7.997181762610098 21.669790672240467 1 0 0
5426 0 1 0 4.929723127227416 8.50804515595606 18.53233199425094 1 0 0
3784 0 2 0 2.1985251418809795 9.507209212895546 15.462704931589235 1 0 0
5186 0 1 0 4.968426448281656 12.113174134196548 16.242695452235466 1 0 0
3958 0 2 0 6.037233702591272 11.416401453368035 18.00057068908275 1 0 0
5823 0 1 0 1.6611651282167925 12.215486277555978 18.960384775786196 1 0 0
3959 0 1 0 5.773832384343042 12.34839312344522 18.023369531585328 1 0 0
3785 0 1 0 1.41400588985307 9.15945509086696 15.019020965080461 1 0 0
5538 0 1 0 1.3451590617587483 7.605760873300912 24.993593389633602 1 0 0
5245 0 2 0 3.2711065665344172 9.851650101384546 29.358418552069903 1 0 0
5247 0 1 0 4.1030468368459525 10.24853655643417 29.71168548662235 1 0 0
5841 0 1 0 4.255804108987757 10.812530941373236 23.159887378754185 1 0 0
4863 0 1 0 5.8351186535204125 6.647464527550408 23.34853518675774 1 0 0
5839 0 2 0 4.838023074788959 11.577953239444954 23.208565824259363 1 0 0
5098 0 2 0 5.9041220503182075 7.931931785109063 26.46065978117671 1 0 0
5256 0 1 0 2.91273253686705 8.718569301859164 23.682042460075603 1 0 0
5669 0 1 0 0.4281988484605534 10.682391258848204 28.230967319190725 1 0 0
5255 0 1 0 4.323734504708226 8.63002026968778 23.08207842344871 1 0 0
5246 0 1 0 3.3663335260690475 9.807598402076422 28.369735535173493 1 0 0
5668 0 2 0 0.46473926203619176 11.525632489429265 27.784549323616854 1 0 0
5228 0 1 0 5.847885973170885 11.043976034295493 24.681699465293594 1 0 0
5710 0 2 0 3.286448832514373 9.480593594829203 26.7373431984383 1 0 0
5712 0 1 0 3.1183225289116514 10.419983645109603 26.44233431060301 1 0 0
5067 0 1 0 0.6080604796428346 11.126810730855913 24.541535985951906 1 0 0
5254 0 2 0 3.4866800033805303 9.096938785044621 22.945191423926943 1 0 0
5227 0 2 0 6.320588406747877 10.56312785539944 25.384061346631256 1 0 0
5711 0 1 0 4.107556196016183 9.11039023584942 26.522083355115615 1 0 0
5536 0 2 0 1.5360789027160227 8.569697346200359 24.85448857975256 1 0 0
3793 0 2 0 2.6320260317312596 7.224820872443351 29.632818895177408 1 0 0
5537 0 1 0 2.03772241383502 8.910977333908212 25.629661764072875 1 0 0
5659 0 2 0 2.298371399877215 11.634293333052296 25.79296494117123 1 0 0
5100 0 1 0 6.078813181333181 8.23000385833922 27.34518698996541 1 0 0
5099 0 1 0 6.007490639091816 8.764090920819603 25.898289091876705 1 0 0
4861 0 2 0 6.206631717383283 7.302998011336946 22.752365118730847 1 0 0
3794 0 1 0 2.9622910393686044 8.163525739611053 29.675186598350404 1 0 0
5661 0 1 0 1.6268064835893004 11.851461767866793 26.51701305432303 1 0 0
5270 0 1 0 2.1728949060094265 11.903056456910289 29.90290241191269 1 0 0
5840 0 1 0 4.270056914909152 12.272552140427347 23.56082563594291 1 0 0
553 0 2 0 6.362037270011166 10.535456191150494 29.222683522697935 0 0 0
5229 0 1 0 6.38528618955551 11.22969204066597 26.094674719057018 1 0 0
3734 0 1 0 0.13147116620652355 8.59401921852778 23.0308011147022 1 0 0
3795 0 1 0 3.135518511848562 6.781280163307235 30.3460232216339 1 0 0
5643 0 1 0 6.088670902371706 13.693559770504548 5.683502620489605 1 0 0
5761 0 2 0 4.886067979590943 16.720363678015058 6.625405744437833 1 0 0
5642 0 1 0 5.058694377934862 13.278349294542368 6.722262183902726 1 0 0
5641 0 2 0 5.145796476211789 13.718222127224847 5.854192593393149 1 0 0
5763 0 1 0 4.751291261035371 15.901445061041883 6.178952908531189 1 0 0
5882 0 1 0 4.537611100101528 18.26084576956618 5.816477457651966 1 0 0
4131 0 1 0 0.5371887268886948 12.78818060069349 4.512793441279886 1 0 0
2730 0 1 0 0.04626143785830413 15.315222508137444 7.338619321824096 1 0 0
4208 0 1 0 3.016081932441439 12.46780051814371 5.350935479540992 1 0 0
4224 0 1 0 1.1015969501523724 14.901864442018464 9.97466861653907 1 0 0
871 0 2 0 0.6357047139130094 13.466798422626967 10.784380373962595 0 0 0
3900 0 1 0 2.899320654571882 12.512125033623144 12.951562577722726 1 0 0
5947 0 2 0 4.583485571799473 18.399052324032095 11.188878242075777 1 0 0
4177 0 2 0 0.9594083444613539 15.319338218509232 13.830264458651024 1 0 0
872 0 1 0 1.2007003532542513 13.29093668927273 11.520829628204153 0 0 0
3475 0 2 0 4.3370015429557345 13.90480037656403 10.427100757081092 1 0 0
5787 0 1 0 3.4431782947965055 17.389219055416504 13.629196985647827 1 0 0
3898 0 2 0 2.515665704549263 13.340532723135501 12.490806960734814 1 0 0
2589 0 1 0 4.180846209539209 15.605536672982076 9.75522257080221 1 0 0
4223 0 1 0 1.1102312570027337 16.455741462047808 10.001365797689983 1 0 0
3476 0 1 0 3.702082629561928 13.611189177538384 11.134076207411201 1 0 0
3899 0 1 0 2.409853357062309 14.060542623322432 13.162333045770652 1 0 0
3477 0 1 0 5.237284878772641 13.735931429578867 10.80235039824871 1 0 0
2588 0 1 0 2.90582674745153 16.318848891788583 9.276977379411152 1 0 0
5949 0 1 0 4.341326909498442 17.778764567293962 10.428020430714557 1 0 0
2587 0 2 0 3.8767460041314123 16.483382089126668 9.369624280829033 1 0 0
5785 0 2 0 2.6403750371937464 17.723908449932512 13.297262281083091 1 0 0
5463 0 1 0 5.551832037511491 16.91932071562168 14.430667497168546 1 0 0
4179 0 1 0 1.124774632739681 15.335140353272982 14.787698810462825 1 0 0
4178 0 1 0 1.353477633849968 16.06254396366565 13.442463119022644 1 0 0
4222 0 2 0 1.3168968096146794 15.681611845870455 9.413489974597828 1 0 0
5786 0 1 0 2.841646357673259 18.000163952743012 12.32025802835574 1 0 0
841 0 2 0 0.3950849281672069 18.171027902520034 10.76539268752738 0 0 0
3866 0 1 0 4.185167827511411 12.528919402240307 9.142575553111856 1 0 0
5762 0 1 0 4.554196076984742 16.50469019499501 7.5476291861863025 1 0 0
3827 0 1 0 1.0712805400246825 12.509796116754389 9.164628320702311 1 0 0
5486 0 1 0 0.904044480181687 18.350287796081393 13.766649487242255 1 0 0
3999 0 1 0 4.357525520930522 15.423445572102603 17.798637882374344 1 0 0
2165 0 1 0 2.9187460382204033 13.995187453878446 20.467583128335882 1 0 0
5731 0 2 0 2.2290772014002673 18.472602636218856 18.23535950759425 1 0 0
5753 0 1 0 6.0222141130839635 16.46531053011999 21.68719110827896 1 0 0
6229 0 2 0 5.32978143931134 14.12202748893003 18.764154254856177 1 0 0
5679 0 1 0 2.290095546727624 14.835681825614072 16.696896355832198 1 0 0
6231 0 1 0 4.911758938544484 13.995134865837715 19.636560296799914 1 0 0
4117 0 2 0 1.6673846170908588 16.78142441400941 20.341242637534386 1 0 0
4118 0 1 0 1.3349897005046276 17.188496583349963 19.558887210294802 1 0 0
5754 0 1 0 4.87439197006099 17.464176063242963 22.226767456466973 1 0 0
4119 0 1 0 2.3894914127411657 16.148230696908996 20.074006823126055 1 0 0
3998 0 1 0 4.243774999318242 16.155254734542687 16.494709157355537 1 0 0
5185 0 2 0 4.99768048083605 12.863497132945556 15.575867931964483 1 0 0
5677 0 2 0 1.4426627650884718 14.762684996481411 16.273808411605497 1 0 0
5678 0 1 0 1.4313125200094288 13.757036841776639 15.98797222721064 1 0 0
3997 0 2 0 3.7728770398593663 16.047484088389186 17.347915500160386 1 0 0
2164 0 2 0 3.6465339284336 14.52875434803 20.8007858936788 1 0 0
5345 0 1 0 0.13801103716253718 16.19608905554801 21.165458778954577 1 0 0
2166 0 1 0 3.6666479915350894 14.295365213465615 21.75123560956562 1 0 0
5752 0 2 0 5.613569806523102 17.380400136250728 21.620122371978344 1 0 0
4268 0 1 0 6.009225715114767 17.832954947869226 19.77095601772025 1 0 0
5733 0 1 0 2.7976867085579737 17.697354670881925 18.054450731533464 1 0 0
5462 0 1 0 5.260155320885111 18.023547191650177 15.379929262699777 1 0 0
5187 0 1 0 5.99395871564095 12.94625445434785 15.485491392795986 1 0 0
6230 0 1 0 6.076326901507746 14.722823072208849 19.03382549760598 1 0 0
5461 0 2 0 4.880211360963043 17.12581064055664 15.131570772108054 1 0 0
5732 0 1 0 1.4037871082929885 18.382651398419778 17.69558419055191 1 0 0
5821 0 2 0 1.903882730936138 12.384285531742036 19.92209039661223 1 0 0
4211 0 1 0 3.813938456248809 16.808482099401672 28.76306195106991 1 0 0
5338 0 2 0 0.5129572171853153 14.399665691006668 23.703603561830683 1 0 0
5340 0 1 0 0.04002232649442552 14.867390613705311 22.907271809544454 1 0 0
3885 0 1 0 1.4377216095106315 16.933845255637994 25.37967939213972 1 0 0
5660 0 1 0 2.435829536952501 12.462172428433345 25.283606394759982 1 0 0
3726 0 1 0 3.4396817399036252 14.478427898367789 24.45925760163966 1 0 0
2491 0 2 0 3.9233919073450063 15.890609644092086 25.427755698398375 1 0 0
5339 0 1 0 0.7305935694596682 15.210508300357299 24.21890725752236 1 0 0
4280 0 1 0 3.426299373405783 17.235831351797266 24.627341611089523 1 0 0
4212 0 1 0 2.47912151974783 16.014905410349726 28.25282466621329 1 0 0
2493 0 1 0 3.7790636965532722 16.21513369050813 26.34815682467556 1 0 0
4210 0 2 0 3.2507918836892427 16.57890182264015 28.016392651995556 1 0 0
5311 0 2 0 4.245099061387778 13.408970532885242 27.560491542579737 1 0 0
2492 0 1 0 4.900415020772272 15.708177419817641 25.427320559949166 1 0 0
3661 0 2 0 0.6695871207141407 15.386237502482098 27.994976655221546 1 0 0
3663 0 1 0 0.605796037530442 15.832811912876144 27.117573116513363 1 0 0
3724 0 2 0 3.1430776262254865 13.656767597950658 23.992141795805225 1 0 0
4279 0 2 0 3.0976883850766463 17.763485306908194 23.896400787944444 1 0 0
3883 0 2 0 0.5948396479315238 16.55751832881165 25.492160171585176 1 0 0
5312 0 1 0 3.925441024018669 14.287291743363665 27.429095522780003 1 0 0
5313 0 1 0 3.6353670006883987 12.88457256259563 28.202244596534964 1 0 0
3725 0 1 0 2.290135308597421 13.965564871659314 23.612841685520795 1 0 0
4082 0 1 0 5.903921550913576 13.154599427076091 27.34718863066738 1 0 0
3807 0 1 0 6.014624160935567 18.163368587322356 29.234182082417266 1 0 0
4389 0 1 0 1.3039379344835458 17.978238600002246 27.71210559254869 1 0 0
5269 0 2 0 2.390913516491437 12.85991974066373 29.826215819179023 1 0 0
3805 0 2 0 5.238326953325609 17.812712403583287 29.636306045994196 1 0 0
5271 0 1 0 1.557023324180882 13.171252565960781 29.384095895839263 1 0 0
3806 0 1 0 5.402514437665796 17.968713286079705 30.577876158243367 1 0 0
5782 0 2 0 2.54651863737986 20.74461036182607 6.783698232362052 1 0 0
5716 0 2 0 1.2398615473717356 20.198139710257244 3.721420272935124 1 0 0
5717 0 1 0 1.91935537970909 20.80196083209962 3.276637873994408 1 0 0
5883 0 1 0 3.753095818974627 19.710263313871863 6.106800344352287 1 0 0
5826 0 1 0 4.456334981566502 20.289505141587142 4.019906669229049 1 0 0
6172 0 2 0 4.072693865218619 24.172895933657745 4.541645634391521 1 0 0
6174 0 1 0 5.099312339627934 24.121093927047422 4.6603878812013635 1 0 0
6173 0 1 0 4.0704146888657755 23.33234974573571 3.972814961859855 1 0 0
5970 0 1 0 0.8840952595271759 21.829162477962424 4.771865509082904 1 0 0
5825 0 1 0 4.415177401038087 20.63787183479457 2.50122114551187 1 0 0
5881 0 2 0 4.484181708717651 19.266957729396427 5.5837702311459365 1 0 0
5824 0 2 0 4.063481639788402 20.905463162036018 3.3857610411198595 1 0 0
5718 0 1 0 1.7407557738968837 19.543923119307703 4.233789960780505 1 0 0
5780 0 1 0 6.1242789363349575 19.415857311189203 6.802973007455018 1 0 0
5783 0 1 0 2.9675275482265855 21.593835132539454 6.976427836741323 1 0 0
5968 0 2 0 0.2574404812572116 22.580836246623 4.899227470082279 1 0 0
5522 0 1 0 0.47310160301544685 24.243304855656756 5.462835768885989 1 0 0
4648 0 2 0 5.16407299166504 24.581109602673468 13.505257401585409 1 0 0
5957 0 1 0 1.6424162732629846 23.473062591631948 9.171145911411097 1 0 0
5853 0 1 0 2.6665258973893993 21.87283436465555 12.566192237102795 1 0 0
5958 0 1 0 0.5597695490229293 23.900129492477813 10.226965671861075 1 0 0
1346 0 1 0 3.217094811496124 24.10184014501679 14.114884376727188 0 0 0
5851 0 2 0 2.2656964628953578 21.580998870765196 11.69720010052611 1 0 0
1345 0 2 0 2.304968363094636 23.963446277096104 14.444473675895624 0 0 0
5568 0 1 0 5.157459200666991 21.05974635200352 10.70249137276448 1 0 0
6197 0 1 0 4.407819778934049 21.929747343751266 9.055849817541501 1 0 0
5674 0 2 0 6.2972890499518535 21.382194937168034 13.918687046206534 1 0 0
1002 0 1 0 6.174912690920901 22.433517960111832 8.00669513345328 0 0 0
5566 0 2 0 4.355506119278556 20.803974861308927 10.129040579729155 1 0 0
5956 0 2 0 1.1099491727025559 23.10957550908334 9.975018054154342 1 0 0
4650 0 1 0 5.941749596327935 24.105555489234675 13.786406439446584 1 0 0
5852 0 1 0 1.9399439764748003 22.394629697918532 11.130842678417137 1 0 0
6196 0 2 0 4.526135465191313 22.757383107597406 8.447610612542327 1 0 0
5736 0 1 0 4.957355143199642 24.474184437065816 11.534608435993045 1 0 0
5567 0 1 0 3.6531170814143956 21.17889196140109 10.70249428401628 1 0 0
5485 0 2 0 0.17322641164303573 18.720560309717474 14.275487791390164 1 0 0
5948 0 1 0 4.4273584232970595 19.284758824822447 10.75141279098921 1 0 0
6198 0 1 0 4.359742610289603 23.446522560378963 9.138425935088458 1 0 0
843 0 1 0 0.2582941598240894 18.6511398054306 9.889272215904882 0 0 0
5871 0 1 0 3.006311821582952 19.889617756015316 14.098372750770757 1 0 0
5869 0 2 0 3.5473761228724547 20.64603990614589 14.16177536495208 1 0 0
5676 0 1 0 5.409850992957979 20.985937359554924 14.11522724566789 1 0 0
6195 0 1 0 0.3167294957469439 21.10871700456601 11.692644073776385 1 0 0
5605 0 2 0 2.131736512124163 24.058377244685133 7.507291485056197 1 0 0
5784 0 1 0 1.8075209630888733 20.812791881250984 7.502524689068377 1 0 0
5607 0 1 0 2.964963563147118 24.510631475624223 7.708234798706324 1 0 0
1243 0 2 0 5.934588127921644 20.81843858285099 22.37037559905535 0 0 0
5867 0 1 0 4.837558421025892 22.350750572074016 19.405330972311948 1 0 0
5507 0 1 0 1.5541205192736895 22.904494947756934 21.51766426888538 1 0 0
4228 0 2 0 6.2023665382392865 19.342408699795904 16.297345345495682 1 0 0
5866 0 2 0 4.568613493129617 22.30919445609171 20.376625774066074 1 0 0
4126 0 2 0 1.6364326571663466 19.538826199803673 21.406741651457946 1 0 0
5895 0 1 0 2.389079545592446 24.493757050954503 17.962545357811262 1 0 0
5774 0 1 0 0.9810345563245171 22.183954124545608 16.56644414092019 1 0 0
5773 0 2 0 1.8413662859250999 22.590831193564092 16.7530125006715 1 0 0
1245 0 1 0 5.619802761640382 20.829981493780917 21.45506205155165 0 0 0
5868 0 1 0 3.6091588691484233 22.134718159642773 20.38319589400011 1 0 0
3943 0 2 0 3.7265778447147087 20.60785932449971 17.644553465312146 1 0 0
5508 0 1 0 1.9563770382321843 23.100517366846457 19.896041634086032 1 0 0
4127 0 1 0 1.3736937184318005 20.2569411011509 20.77195975877403 1 0 0
5506 0 2 0 1.7828502903677312 22.445366587037487 20.59523769651814 1 0 0
5775 0 1 0 2.386725080475952 21.84044626666018 17.175533346520623 1 0 0
4128 0 1 0 1.665051808633852 18.731209489506938 20.911915881364756 1 0 0
3944 0 1 0 4.405723763380191 20.36194786317445 16.937417807276137 1 0 0
4229 0 1 0 6.401726915511364 18.973806420997438 17.18615027176066 1 0 0
75 0 1 0 5.529765188243542 24.40631594542477 16.813955068282063 0 -1 0
3945 0 1 0 3.164527536300448 19.794691304187072 17.69682143403409 1 0 0
1347 0 1 0 2.3471284238410624 23.397930136598188 15.279259643439248 0 0 0
5893 0 2 0 2.512732161617377 24.514908119418237 18.95643260279406 1 0 0
1194 0 1 0 6.262804711075864 23.20946489157136 22.461856724075947 0 0 0
5894 0 1 0 3.4469250747095543 24.539521854606626 19.07904984807445 1 0 0
5870 0 1 0 3.2565395539979787 21.06455897570653 15.018593568905686 1 0 0
973 0 2 0 1.172832054748614 24.33050601418121 22.628265014829974 0 0 0
5833 0 2 0 2.4507583140871234 23.234432334798775 24.959133536898943 1 0 0
5834 0 1 0 3.352526269841981 23.316518131607673 25.39878293604308 1 0 0
4388 0 1 0 0.609460857175246 19.327924171596777 27.38372060023332 1 0 0
5835 0 1 0 2.567264132055727 22.40806986359318 24.47963014601591 1 0 0
808 0 2 0 3.7115383587074753 20.201604121227074 26.604160533532262 0 0 0
3774 0 1 0 4.3654529134152344 20.867257131667486 23.403720107395433 1 0 0
5901 0 1 0 1.863912010035305 23.18054938706876 26.90092562307608 1 0 0
809 0 1 0 2.9574373645390084 19.570175255449378 26.847265678154834 0 0 0
5498 0 1 0 6.049805571161239 22.555042032026357 26.416511118185518 1 0 0
6190 0 2 0 4.481031408059218 22.411162371615593 28.15060608089801 1 0 0
5899 0 2 0 1.7453438042026554 23.35468457973945 27.876804462534597 1 0 0
5497 0 2 0 6.371065102048852 22.19382011069168 25.559052955968305 1 0 0
5900 0 1 0 1.088918156866812 24.0981095070695 27.75813657621129 1 0 0
4281 0 1 0 3.1244552116110067 18.748996477528532 24.116217334930646 1 0 0
975 0 1 0 1.6162749672421715 24.389494001251165 23.503732448858177 0 0 0
1367 0 1 0 5.5924099354630386 19.188529526978883 26.33359940125289 0 0 0
810 0 1 0 3.370742596855764 20.67103962791299 25.788455137077154 0 0 0
3773 0 1 0 2.9557287713340292 20.31762537938546 22.93021638679385 1 0 0
3772 0 2 0 3.4369328265025207 20.722248099509514 23.651263350729575 1 0 0
6191 0 1 0 3.552253847138258 22.590431416067993 28.372866640804105 1 0 0
6192 0 1 0 4.244774201330595 21.707146997364685 27.574579430118316 1 0 0
4387 0 2 0 1.47846779768836 18.964006906841938 27.61422255186237 1 0 0
3913 0 2 0 1.0965775597982599 29.863998719083376 6.290290863316508 1 0 0
5523 0 1 0 0.2550791271279128 25.95516867759244 5.655882833203311 1 0 0
3915 0 1 0 0.8578007570494456 29.968687121943464 7.199718152313476 1 0 0
4263 0 1 0 3.641167867640792 25.80095714710791 4.253822678309718 1 0 0
4674 0 1 0 1.1385881793731585 28.35717679514203 5.463930981806684 1 0 0
4616 0 1 0 3.9382006498543967 27.11444226021035 6.3534170445203335 1 0 0
4261 0 2 0 3.5288517817648586 26.814602523583936 4.210835371160575 1 0 0
1491 0 1 0 5.079101965726293 30.418316025370736 6.014176006965779 0 0 0
4672 0 2 0 0.7360763807947791 27.597033693792163 4.980650052902397 1 0 0
4673 0 1 0 1.5728661324922335 27.199587610187272 4.614292432426692 1 0 0
4262 0 1 0 4.376474411534217 27.18239203816485 3.8575188529272135 1 0 0
3914 0 1 0 1.3581826554487526 30.74071499549622 5.980181777425296 1 0 0
4615 0 2 0 3.776543792695151 27.099713202403507 7.331144544176247 1 0 0
5606 0 1 0 1.4172319360627652 24.7318886449221 7.3494302399132865 1 0 0
1696 0 2 0 3.094865326988465 27.311105321117015 10.424152726642944 0 -1 0
4604 0 1 0 3.5344358996330225 29.428113379897376 14.172169567729684 1 0 0
6166 0 2 0 3.4526382816322574 29.621652375598263 8.657654465828713 1 0 0
6099 0 1 0 1.4152195635868736 29.376685462483444 9.29882080380519 1 0 0
6167 0 1 0 3.6946761662362744 28.739095297151515 8.32891962868704 1 0 0
5982 0 1 0 6.416153938915269 27.126594733017832 12.846301436752029 1 0 0
5592 0 1 0 0.6489541877582846 28.416413481469277 12.562530760219516 1 0 0