LAMMPS (4 Feb 2025)
OMP_NUM_THREADS environment is not set. Defaulting to 1 thread. (src/comm.cpp:99)
  using 1 OpenMP thread(s) per MPI task
# LAMMPS script for running NVT simulation

units       metal
dimension   3
boundary    p p p
atom_style  full
atom_modify map yes

newton      on

read_data   ../equi_final.lammps-data
Reading data file ...
  orthogonal box = (0 0 0) to (38.502 37.05 100)
  8 by 8 by 16 MPI processor grid
  reading atoms ...
  4050 atoms
  reading velocities ...
  4050 velocities
Finding 1-2 1-3 1-4 neighbors ...
  special bond factors lj:    0        0        0       
  special bond factors coul:  0        0        0       
     0 = max # of 1-2 neighbors
     0 = max # of 1-3 neighbors
     0 = max # of 1-4 neighbors
     1 = max # of special neighbors
  special bonds CPU = 1.182 seconds
  read_data CPU = 1.309 seconds

pair_style  symmetrix/mace
pair_coeff  * * ../../../../00-common/models/ch2o-dens-inv_swa-1-6-8.json C H O
Loading MACE model from '../../../../00-common/models/ch2o-dens-inv_swa-1-6-8.json' ... success
  mapping LAMMPS type 1 (C) to MACE type 1
  mapping LAMMPS type 2 (H) to MACE type 0
  mapping LAMMPS type 3 (O) to MACE type 2

variable t equal step

group graphene type 1
540 atoms in group graphene
group H2O type 2 3
3510 atoms in group H2O

thermo 1000

######### NVT production for 200 ps #############

dump DUMP1 all atom 200 nvt_prod_snapshots.lammpstrj
timestep 0.001
fix NVT1 graphene nvt temp 300 300 0.1
fix NVT2 H2O nvt temp 300 300 0.1
run 200000
Neighbor list info ...
  update: every = 1 steps, delay = 0 steps, check = yes
  max neighbors/atom: 2000, page size: 100000
  master list distance cutoff = 8
  ghost atom cutoff = 8
  binsize = 4, bins = 10 10 25
  1 neighbor lists, perpetual/occasional/extra = 1 0 0
  (1) pair symmetrix/mace, perpetual
      attributes: full, newton on
      pair build: full/bin
      stencil: full/bin/3d
      bin: standard
Per MPI rank memory allocation (min/avg/max) = 5.913 | 6.273 | 6.832 Mbytes
   Step          Temp          E_pair         E_mol          TotEng         Press     
         0   297.32079     -633267.47      0             -633111.86     -470.56531    
      1000   302.08141     -633267.85      0             -633109.74     -17.758776    
      2000   298.16258     -633269.99      0             -633113.94     -543.4326     
      3000   296.80408     -633266.91      0             -633111.57     -355.11849    
      4000   308.64064     -633271.16      0             -633109.63     -189.30506    
      5000   297.98514     -633271.28      0             -633115.32      84.908953    
      6000   293.21041     -633272.9       0             -633119.44      58.526379    
      7000   302.51129     -633272.82      0             -633114.49      367.13208    
      8000   301.50213     -633263.01      0             -633105.21      151.40435    
      9000   298.8043      -633268.68      0             -633112.3      -186.40933    
     10000   298.45569     -633271.27      0             -633115.07      133.69575    
     11000   298.32091     -633268.63      0             -633112.49     -136.19269    
     12000   298.22179     -633272.16      0             -633116.07     -241.37155    
     13000   294.99391     -633264.87      0             -633110.48     -70.963119    
     14000   296.43203     -633268.39      0             -633113.25      327.29986    
     15000   298.71032     -633269.13      0             -633112.79      101.89918    
     16000   297.77356     -633270.81      0             -633114.96      314.83212    
     17000   290.94161     -633269.3       0             -633117.02      76.8711      
     18000   302.58547     -633267.84      0             -633109.48      132.03034    
     19000   298.93065     -633271.56      0             -633115.11      234.83669    
     20000   299.4954      -633268.85      0             -633112.11     -110.7045     
     21000   307.82961     -633273.06      0             -633111.95      337.46292    
     22000   300.7724      -633265.99      0             -633108.57      2.185335     
     23000   301.76704     -633264.45      0             -633106.52     -165.71513    
     24000   302.86077     -633270.47      0             -633111.96      294.90017    
     25000   304.94576     -633262.37      0             -633102.77      420.49116    
     26000   299.12877     -633270.31      0             -633113.75      372.28412    
     27000   301.09313     -633266.44      0             -633108.85     -84.111681    
     28000   300.00858     -633271.47      0             -633114.46      49.581355    
     29000   309.00938     -633267.36      0             -633105.63      394.50575    
     30000   297.25332     -633268.53      0             -633112.96     -228.19757    
     31000   300.52687     -633270.1       0             -633112.82     -8.9701143    
     32000   297.19973     -633262.89      0             -633107.34     -618.24256    
     33000   303.19359     -633270.18      0             -633111.5      -176.50967    
     34000   299.08813     -633266.61      0             -633110.08     -146.24314    
     35000   301.86498     -633262.41      0             -633104.42     -59.921671    
     36000   301.67361     -633268.4       0             -633110.51      321.80232    
     37000   302.2387      -633268.37      0             -633110.18      20.171915    
     38000   294.7194      -633270.77      0             -633116.52     -139.96308    
     39000   302.37219     -633267.26      0             -633109         466.96205    
     40000   303.73408     -633269.3       0             -633110.33     -62.589501    
     41000   297.50294     -633269.69      0             -633113.98      235.9576     
     42000   297.92456     -633263.63      0             -633107.7       87.85013     
     43000   290.46979     -633267.76      0             -633115.74      521.70085    
     44000   302.29478     -633267.43      0             -633109.21     -151.6524     
     45000   301.15        -633265.94      0             -633108.33     -111.87318    
     46000   298.78263     -633263.13      0             -633106.75      18.989358    
     47000   300.94996     -633269.2       0             -633111.69      307.17723    
     48000   297.24223     -633266.96      0             -633111.39     -27.038057    
     49000   300.74898     -633263.63      0             -633106.23      286.16358    
     50000   301.09883     -633265.62      0             -633108.04      307.22166    
     51000   299.2418      -633263.97      0             -633107.35      123.05375    
     52000   301.22372     -633263.31      0             -633105.66      309.38022    
     53000   299.55428     -633265.85      0             -633109.07      343.70801    
     54000   298.80674     -633269.99      0             -633113.6       35.211764    
     55000   297.32594     -633266.62      0             -633111.01     -56.036718    
     56000   301.57597     -633266.13      0             -633108.29     -13.512567    
     57000   297.72308     -633270.21      0             -633114.39      81.288357    
     58000   298.7638      -633268.68      0             -633112.31      156.89875    
     59000   302.16014     -633267.84      0             -633109.69      313.20813    
     60000   302.29473     -633269.29      0             -633111.07      248.73846    
     61000   291.84377     -633267.49      0             -633114.74      131.98741    
     62000   299.92163     -633267.61      0             -633110.64      467.81345    
     63000   297.74949     -633266.32      0             -633110.48      215.31924    
     64000   296.2333      -633269.82      0             -633114.78      133.71064    
     65000   295.56575     -633269.55      0             -633114.86      351.0928     
     66000   299.89799     -633275.52      0             -633118.56      259.68794    
     67000   297.32383     -633274.67      0             -633119.06      313.34059    
     68000   296.70792     -633264.18      0             -633108.89      92.298771    
     69000   292.66168     -633271.63      0             -633118.46     -91.182561    
     70000   297.6819      -633271.2       0             -633115.4      -23.434943    
     71000   295.66787     -633268.08      0             -633113.33      97.600915    
     72000   302.14781     -633269.71      0             -633111.57     -687.49778    
     73000   298.83761     -633270.02      0             -633113.62      51.880584    
     74000   300.0576      -633269.83      0             -633112.78      133.32102    
     75000   302.60686     -633267.28      0             -633108.9      -415.80509    
     76000   294.80541     -633268.67      0             -633114.38     -43.910957    
     77000   305.53023     -633267.41      0             -633107.51      359.36488    
     78000   301.60512     -633272.35      0             -633114.5       539.15957    
     79000   302.79524     -633274.96      0             -633116.48      238.50425    
     80000   297.76198     -633267.84      0             -633112        -165.88753    
     81000   300.05211     -633270.28      0             -633113.25      153.64849    
     82000   297.29697     -633271.11      0             -633115.51     -285.6867     
     83000   299.71168     -633268.57      0             -633111.7       52.136336    
     84000   298.32429     -633268.3       0             -633112.16      51.774396    
     85000   301.54704     -633269.45      0             -633111.63      219.85229    
     86000   302.07534     -633266.11      0             -633108.01      412.86783    
     87000   301.33555     -633269.21      0             -633111.5      -417.03086    
     88000   300.13741     -633267.48      0             -633110.4      -60.315108    
     89000   305.41439     -633269.03      0             -633109.18      502.4499     
     90000   300.7105      -633271.68      0             -633114.29      317.32198    
     91000   299.51657     -633266.31      0             -633109.55      321.29982    
     92000   302.40628     -633270.36      0             -633112.08     -82.16678     
     93000   304.30331     -633267.63      0             -633108.36      148.58482    
     94000   300.73755     -633270.18      0             -633112.78      419.30793    
     95000   302.1004      -633265.85      0             -633107.73     -2.5906687    
     96000   297.48008     -633263.67      0             -633107.97      170.73149    
     97000   303.30988     -633269.52      0             -633110.77     -101.54976    
     98000   298.37951     -633269.51      0             -633113.35      76.964704    
     99000   307.33653     -633269.34      0             -633108.49     -22.320451    
    100000   299.9687      -633259.82      0             -633102.82     -193.13491    
    101000   301.05752     -633268.52      0             -633110.96      229.71091    
    102000   294.52532     -633269.19      0             -633115.04     -8.0402167    
    103000   304.74199     -633264.78      0             -633105.29      450.23618    
    104000   301.88137     -633271.02      0             -633113.02      35.07248     
    105000   302.37493     -633267.91      0             -633109.66      160.78801    
    106000   298.78705     -633271.33      0             -633114.95     -64.039372    
    107000   294.34193     -633264.96      0             -633110.9       98.198624    
    108000   293.40963     -633273.42      0             -633119.86     -25.223512    
    109000   302.38295     -633266.87      0             -633108.61      118.43458    
    110000   302.15493     -633270.67      0             -633112.53      116.50591    
    111000   302.98881     -633269.82      0             -633111.25      123.11601    
    112000   307.78422     -633272.24      0             -633111.16      518.44048    
    113000   306.87018     -633262.6       0             -633101.99      280.14704    
    114000   299.27908     -633271.56      0             -633114.93     -202.33992    
    115000   298.78325     -633271.26      0             -633114.88     -32.896996    
    116000   297.7123      -633265.96      0             -633110.14      331.97791    
    117000   304.0823      -633269.92      0             -633110.77      96.966379    
    118000   305.07674     -633269.96      0             -633110.29     -142.5743     
    119000   304.31884     -633264.76      0             -633105.49     -461.89358    
    120000   299.73788     -633262.86      0             -633105.98     -81.563379    
    121000   296.1834      -633267.43      0             -633112.42      82.326151    
    122000   298.73029     -633264.65      0             -633108.3       205.84535    
    123000   306.72529     -633266.19      0             -633105.66     -90.425328    
    124000   300.66675     -633263.46      0             -633106.1      -219.70555    
    125000   300.13506     -633268.05      0             -633110.97      453.75557    
    126000   298.5672      -633267.78      0             -633111.52      114.17363    
    127000   301.92557     -633265.47      0             -633107.45      9.1211761    
    128000   305.73782     -633267         0             -633106.99      62.505835    
    129000   301.78113     -633267.95      0             -633110         281.71383    
    130000   296.60347     -633269.7       0             -633114.47      263.69037    
    131000   295.31119     -633266.82      0             -633112.27     -10.510621    
    132000   304.08468     -633266.21      0             -633107.06      94.296053    
    133000   298.53453     -633272.54      0             -633116.29      170.83445    
    134000   300.64878     -633270.14      0             -633112.79     -337.12023    
    135000   306.10234     -633270.81      0             -633110.6       278.70158    
    136000   293.17911     -633273.56      0             -633120.12     -67.512382    
    137000   302.34502     -633271.12      0             -633112.88      218.09212    
    138000   300.65048     -633270.68      0             -633113.33     -406.74887    
    139000   299.87112     -633271.94      0             -633114.99      297.71932    
    140000   294.54351     -633267         0             -633112.85      234.93342    
    141000   296.03519     -633272         0             -633117.07     -336.30954    
    142000   299.48914     -633271.27      0             -633114.53      319.98439    
    143000   301.82842     -633272.09      0             -633114.12      15.850109    
    144000   294.3144      -633267.58      0             -633113.54      51.379974    
    145000   302.60528     -633265.97      0             -633107.59      60.277559    
    146000   296.01619     -633267.21      0             -633112.28     -67.165719    
    147000   300.32313     -633264.17      0             -633106.99      117.59395    
    148000   305.72809     -633270.62      0             -633110.61      434.65813    
    149000   300.65132     -633267.42      0             -633110.07     -172.67359    
    150000   295.57578     -633269.06      0             -633114.36      395.9969     
    151000   303.37986     -633273.2       0             -633114.42      229.93274    
    152000   296.22884     -633265.24      0             -633110.2      -222.68541    
    153000   292.82291     -633271.41      0             -633118.16     -11.692299    
    154000   298.72733     -633266.48      0             -633110.13     -114.01061    
    155000   297.74685     -633266.66      0             -633110.83     -201.60028    
    156000   303.79436     -633266.35      0             -633107.35     -112.27869    
    157000   299.23845     -633265.88      0             -633109.26     -595.60442    
    158000   291.80704     -633268.45      0             -633115.72      19.435442    
    159000   302.57801     -633263.15      0             -633104.78     -338.88826    
    160000   301.15515     -633269.5       0             -633111.89     -128.56821    
    161000   292.62898     -633266.18      0             -633113.03      428.19442    
    162000   300.52284     -633268.03      0             -633110.74      66.752151    
    163000   307.91544     -633270.54      0             -633109.38     -200.11464    
    164000   300.61667     -633267.61      0             -633110.28     -43.139403    
    165000   297.82149     -633265.6       0             -633109.72      224.79495    
    166000   302.25161     -633265.94      0             -633107.74      142.79311    
    167000   294.49808     -633268.8       0             -633114.67      48.068148    
    168000   301.6924      -633262.98      0             -633105.08      312.13027    
    169000   300.25433     -633265.52      0             -633108.38     -154.70674    
    170000   299.74588     -633264.56      0             -633107.68     -326.6298     
    171000   300.86793     -633270.51      0             -633113.05     -48.061638    
    172000   302.106       -633270.18      0             -633112.07     -272.52485    
    173000   301.84174     -633269.88      0             -633111.9      -237.9601     
    174000   305.4551      -633266.71      0             -633106.84      215.64354    
    175000   303.68335     -633270.55      0             -633111.61     -103.58112    
    176000   296.55545     -633267.71      0             -633112.5      -280.90959    
    177000   302.30052     -633273.09      0             -633114.88      257.53843    
    178000   304.71449     -633265.29      0             -633105.81     -109.56305    
    179000   300.78247     -633266.76      0             -633109.34     -322.90732    
    180000   299.18599     -633268.11      0             -633111.53     -102.60319    
    181000   295.01097     -633267.87      0             -633113.47      85.5007      
    182000   299.90798     -633266.72      0             -633109.75      113.64812    
    183000   298.60109     -633265.99      0             -633109.71      54.437284    
    184000   302.0008      -633265.71      0             -633107.66     -157.54533    
    185000   295.68326     -633264.6       0             -633109.84      11.028796    
    186000   300.24314     -633261.18      0             -633104.04     -12.86005     
    187000   303.20741     -633265.87      0             -633107.18     -318.39965    
    188000   300.85789     -633267.9       0             -633110.44      276.58636    
    189000   301.83823     -633264.97      0             -633107         394.18156    
    190000   306.27455     -633268.38      0             -633108.08      403.2823     
    191000   301.53518     -633267.62      0             -633109.81     -67.172811    
    192000   300.49024     -633265.49      0             -633108.22      215.66688    
    193000   297.65095     -633270.76      0             -633114.98     -58.562473    
    194000   284.5538      -633271.94      0             -633123.01      184.12594    
    195000   303.07358     -633269.97      0             -633111.35      263.0784     
    196000   297.70312     -633268.07      0             -633112.26     -33.497339    
    197000   294.04095     -633272.65      0             -633118.76      173.7131     
    198000   302.81887     -633269.56      0             -633111.07      295.98506    
    199000   297.26207     -633271.49      0             -633115.91      327.09245    
    200000   304.92827     -633275.93      0             -633116.34      126.43039    
Loop time of 17219.2 on 1024 procs for 200000 steps with 4050 atoms

Performance: 1.004 ns/day, 23.916 hours/ns, 11.615 timesteps/s, 47.041 katom-step/s
100.0% CPU use with 1024 MPI tasks x 1 OpenMP threads

MPI task timing breakdown:
Section |  min time  |  avg time  |  max time  |%varavg| %total
---------------------------------------------------------------
Pair    | 0.19783    | 6638.2     | 15659      |8340.1 | 38.55
Bond    | 0.0080761  | 0.035136   | 0.13071    |  19.4 |  0.00
Neigh   | 0.012931   | 0.25328    | 1.2473     |  67.2 |  0.00
Comm    | 1.4218     | 512.08     | 2962.2     |3269.7 |  2.97
Output  | 2.082      | 316.76     | 338.93     | 401.1 |  1.84
Modify  | 193.59     | 9723.9     | 16873      |7499.9 | 56.47
Other   |            | 27.97      |            |       |  0.16

Nlocal:        3.95508 ave          22 max           0 min
Histogram: 701 5 7 22 45 129 53 45 15 2
Nghost:        263.533 ave         939 max           0 min
Histogram: 576 0 35 93 0 107 21 1 127 64
Neighs:              0 ave           0 max           0 min
Histogram: 1024 0 0 0 0 0 0 0 0 0
FullNghs:      746.217 ave        4683 max           0 min
Histogram: 704 7 33 51 55 79 51 34 8 2

Total # of neighbors = 764126
Ave neighs/atom = 188.67309
Ave special neighs/atom = 0
Neighbor list builds = 9364
Dangerous builds = 0

write_restart nvt_prod.restart.*
System init for write_restart ...
write_data nvt_prod_final.lammps-data
System init for write_data ...

Total wall time: 4:47:20
