LAMMPS data file via write_data, version 4 Feb 2025, timestep = 200000, units = metal

4050 atoms
3 atom types

0 38.501999999999995 xlo xhi
0 37.05 ylo yhi
0 100 zlo zhi

Masses

1 12.01099999691024
2 1.007999999740698
3 15.99899999588435

Atoms # full

1810 0 1 0 2.280394967049532 1.7809795802342598 3.9137572135216927 1 0 0
2261 0 1 0 3.702658711182217 4.278271902449351 3.7429645096505677 1 0 0
2252 0 1 0 2.2843313909901535 4.236069011377972 3.715661431610448 1 0 0
1818 0 1 0 4.381829088696754 0.4988223671780856 3.8403347668396886 1 0 0
1819 0 1 0 3.726433589358685 1.7441577267426334 3.9036865207984373 1 0 0
1820 0 1 0 4.4204292067427255 2.9813409109620763 3.8263315648263836 1 0 0
451 0 1 0 1.575083173297803 3.002138867455426 3.7474848417798396 1 0 0
459 0 1 0 1.5894712799364814 0.49781371174475386 3.958141082338421 1 0 0
510 0 1 0 0.1685695891415365 2.9603791629564133 3.6259228398895336 1 0 0
508 0 1 0 0.14655610890983312 0.5111740737095161 3.866326066467377 1 0 0
1637 0 2 0 2.858108890080685 2.507422702792476 10.026855430390182 1 0 0
2497 0 3 0 3.91043124734488 3.966522184636214 9.92231520974873 1 0 0
2610 0 2 0 3.9038414360873723 1.6019858072615667 11.695447804700503 1 0 0
1073 0 2 0 1.522932766238588 3.6477272820907034 7.921236205422759 1 0 0
1638 0 2 0 1.7548167825166008 1.581694608443823 10.598615384734071 1 0 0
1636 0 3 0 2.5079570837592313 1.566244990346964 9.950948055684327 1 0 0
983 0 2 0 0.3921287510885498 0.7311450734628623 12.40456004791875 0 0 0
1072 0 3 0 0.6888098696832907 3.348194352775225 8.299691189657707 1 0 0
1074 0 2 0 0.13384776940047802 2.81620147339521 7.670646644690606 1 0 0
3113 0 2 0 2.2021349195091187 1.2280397782272447 7.912550433808409 1 0 0
3112 0 3 0 2.378123453613119 1.0386969937553165 6.992454250789538 1 0 0
982 0 3 0 0.5940858658174459 1.6374829515902853 12.092231941391777 0 0 0
3114 0 2 0 1.54665306106651 0.9991523272764122 6.510146796472727 1 0 0
2499 0 2 0 4.632256553773136 4.009315465005077 10.603323964655068 1 0 0
1026 0 2 0 4.266928036325298 4.482121725506858 7.680688894527207 0 0 0
350 0 2 0 3.1594391547815905 1.6092869047090141 15.273031435004649 0 -1 0
3355 0 3 0 2.0521190051387097 1.4855960206230467 17.903523251545785 0 0 0
3798 0 2 0 1.929592962177415 3.5722160898521063 14.72863543956603 1 0 0
351 0 2 0 2.470501463600087 1.5067605377860354 13.91310889791161 0 -1 0
3356 0 2 0 1.530001758365034 2.0114428011252623 17.25727132636216 0 0 0
3796 0 3 0 1.9421174674634183 4.540005722984373 14.625615019908565 1 0 0
3357 0 2 0 3.0029464431701323 1.6397523359584296 17.62583206040828 0 0 0
349 0 3 0 2.2706330169950983 1.7373267627928135 14.847619911393057 0 -1 0
229 0 3 0 4.588888945106274 0.5580248561172518 16.591887485231688 0 -1 0
629 0 2 0 0.314774070495887 3.6800458780055294 18.478344614970506 0 -1 0
628 0 3 0 0.7816170782143282 4.482797060964932 18.46226528359038 0 -1 0
630 0 2 0 1.7469999864778423 4.389558554321408 18.627183216145983 0 -1 0
1898 0 2 0 4.793459740298114 0.016637804921479225 13.361398222444203 0 0 0
2608 0 3 0 4.3699991974423975 1.5644103772532523 12.507796129449103 1 0 0
597 0 2 0 1.3497535688555398 1.7871704622175828 19.521900004594908 0 0 0
3416 0 2 0 3.4139547012351104 0.6688464888006269 23.361044675151877 1 -1 0
695 0 2 0 4.006338271892338 3.775341537410998 19.03063430049528 0 0 0
3427 0 3 0 2.4098001804751426 2.4689545871283913 22.82721406131498 1 0 0
595 0 3 0 1.146478803899118 1.6649104879633656 20.51464116087799 0 0 0
596 0 2 0 1.9100343826595936 2.069388895055786 20.964154518933913 0 0 0
3428 0 2 0 1.8265813165653648 2.6091928066800034 23.634344285627773 1 0 0
3429 0 2 0 3.2608514403782345 2.902127221488573 23.055617751938875 1 0 0
3268 0 3 0 0.8419157005342282 2.615580416854007 24.771594640803123 1 0 0
2209 0 3 0 4.718689857675217 4.3261288473138 23.508119051071485 1 -1 0
3821 0 2 0 4.787076246781097 0.7773952192871781 20.51818704158698 1 0 0
694 0 3 0 3.3911376091308387 4.497015097217142 19.183608917840164 0 0 0
3812 0 2 0 1.670412066334224 4.438505893186416 22.71066944613166 1 0 0
2848 0 3 0 3.9311195412840845 2.321264779536364 27.55614606451557 1 0 0
3028 0 3 0 1.7638413599138543 0.8377355801588525 29.79019091638587 1 -1 0
106 0 3 0 2.9805518437507836 3.984312046171097 30.32075733180135 0 0 0
2435 0 2 0 3.4507881197212633 3.787699073958326 26.067928046216526 1 0 0
107 0 2 0 2.620023814647359 4.626500405397547 29.61556810730056 0 0 0
2850 0 2 0 4.145572669865793 1.4278338413020075 27.77259089700713 1 0 0
2849 0 2 0 3.6116220565325894 2.63230381912194 28.41391492713906 1 0 0
3269 0 2 0 1.1422360728146972 3.3112501426936407 25.372162113438485 1 0 0
2434 0 3 0 2.605724732597774 4.238602949921531 26.101969154698562 1 0 0
2436 0 2 0 2.31573252129725 4.219651940287625 27.01663677019934 1 0 0
3029 0 2 0 2.5983370014932614 0.29749490135209794 29.773053873755472 1 -1 0
3030 0 2 0 2.1232007190146587 1.7552178232522384 29.992283363607783 1 -1 0
108 0 2 0 2.3388954564526068 4.016472485245124 31.023071040855548 0 0 0
1595 0 2 0 0.04862016538982772 0.8249536870668067 25.14819183184062 1 0 0
2318 0 2 0 0.5308603565259506 4.365405009915276 28.627479077941086 0 0 0
2254 0 1 0 2.246631550359546 6.724320383356422 3.54100002294195 1 0 0
905 0 1 0 1.5225333631297642 7.981879885375587 3.4179534974618155 1 0 0
2263 0 1 0 3.69258891207754 6.725888345008672 3.6763224469212643 1 0 0
2262 0 1 0 4.409691917364512 5.461824543261267 3.7064541224152574 1 0 0
2264 0 1 0 4.396425903539428 7.985069871486952 3.666748021764766 1 0 0
2256 0 1 0 2.262032628134107 9.170322034087857 3.429617923460625 1 0 0
903 0 1 0 1.598276395889409 5.483534846375043 3.5097423082512385 1 0 0
954 0 1 0 0.08094779855179961 7.98310743973673 3.3623993469265336 1 0 0
2265 0 1 0 3.681195149124826 9.161656881710375 3.506219677634494 1 0 0
952 0 1 0 0.2064827797427039 5.490600399904244 3.4992994593544706 1 0 0
1025 0 2 0 3.93703570902865 4.902946148380915 6.2224390389303394 0 0 0
155 0 2 0 2.987405336728428 8.083180827178586 5.827275301802351 0 -1 0
992 0 2 0 0.07017674809402052 7.385323441040689 6.027483224247118 1 0 0
1746 0 2 0 1.2041387542087005 8.783046369415587 10.490037522214967 1 -1 0
3665 0 2 0 1.3816233626166181 5.698091768781578 11.535689693009706 1 0 0
2077 0 3 0 0.046742630650404515 5.922631945423481 9.139364876208006 0 -1 0
3567 0 2 0 2.7991254525120928 7.196853768385152 10.60179738731847 1 0 0
3566 0 2 0 1.6554811979038655 6.447403501841462 9.81514656296402 1 0 0
3565 0 3 0 2.497821243144 6.277465575508292 10.36388286386036 1 0 0
2498 0 2 0 3.451221263691455 4.814809119902917 10.011344265505063 1 0 0
154 0 3 0 2.989533415488384 8.033740388850727 6.737094001417638 0 -1 0
3139 0 3 0 1.9142076310229157 5.314264547564669 6.63437280715807 1 -1 0
2078 0 2 0 0.2395240395136929 5.031697933469832 8.665847737914994 0 -1 0
1247 0 2 0 4.233768749139523 8.351974614144453 8.186072162660409 0 0 0
1024 0 3 0 4.667596923683954 4.729446170663039 6.84304848142389 0 0 0
3140 0 2 0 2.3091831716357043 6.217887514814049 6.740933492361134 1 -1 0
1744 0 3 0 1.9967382515221612 9.131758941933246 10.063790524736193 1 -1 0
156 0 2 0 2.204566803898031 8.56831848159278 6.977581765731268 0 -1 0
3666 0 2 0 0.09211232414226869 4.966769949250639 12.028412704245941 1 0 0
3664 0 3 0 0.8728457744737892 5.509576324266719 12.35834822694371 1 0 0
3141 0 2 0 0.9838204543288872 5.505119479454434 6.389857378311326 1 -1 0
367 0 3 0 3.8618953410549675 7.090014251700167 17.538131266076448 0 -1 0
3223 0 3 0 4.2792946836519485 5.57885574358891 15.389341333086133 1 0 0
693 0 2 0 0.870427680374575 5.482472630108078 15.77049174026827 0 0 0
369 0 2 0 2.90977779879363 7.015903756363655 17.480596407165983 0 -1 0
691 0 3 0 0.36520556209346483 6.104640632189339 16.36645471464958 0 0 0
1544 0 2 0 4.090486488722506 7.425863523064556 13.025368392836954 1 -1 0
4015 0 3 0 1.703865947787397 8.363840530672308 16.042968402779156 1 0 0
368 0 2 0 4.11939934094683 6.585335401983344 16.65099304035283 0 -1 0
4016 0 2 0 1.1474237570971482 7.566344339514371 16.262634758083493 1 0 0
692 0 2 0 0.5681563379736972 5.631781017271262 17.19637640318804 0 0 0
681 0 2 0 3.8502181904002786 9.035190057760534 16.8244473529795 0 0 0
3797 0 2 0 1.636826903834234 4.742186689589518 13.69073736079257 1 0 0
4017 0 2 0 1.2754927249079977 9.091130169994997 16.552706499675455 1 0 0
3224 0 2 0 3.3429408414956336 5.259932279682548 15.181377845630962 1 0 0
3723 0 2 0 2.2674258610300444 8.90625234864035 13.031126927073405 1 0 0
3721 0 3 0 3.154282020748124 8.709726542910415 12.667968187458492 1 0 0
3225 0 2 0 4.702704813925441 5.900507917855167 14.53368261095056 1 0 0
237 0 2 0 1.039584362103052 9.021606630819258 14.579503142796794 0 -1 0
3704 0 2 0 2.4032705015679254 6.900785101605443 24.56157108247972 1 0 0
3097 0 3 0 2.1012447988029903 7.83251207787248 21.10354842691104 1 -1 0
1467 0 2 0 3.447476115994457 7.440252269538405 22.637659940912418 1 0 0
3555 0 2 0 0.32349171760517637 8.082989909691744 24.44288477063524 1 -1 0
1465 0 3 0 4.049559286290173 7.009345954101683 23.29170937491604 1 0 0
3098 0 2 0 1.6311849525552917 6.952620349811769 21.209637125170122 1 -1 0
3811 0 3 0 1.0687591140239618 5.215219055208329 22.664890960200346 1 0 0
3099 0 2 0 1.3850426586804343 8.427376008701934 20.9153823493808 1 -1 0
2210 0 2 0 4.616583436855979 5.347434512752316 23.556170602115238 1 -1 0
3813 0 2 0 1.0411151618086538 5.594869324649501 23.551361531435514 1 0 0
696 0 2 0 3.866598635856521 5.262231677892576 18.77158329802652 0 0 0
2317 0 3 0 1.1936239804688464 5.104967772864104 28.773050088062206 0 0 0
1520 0 2 0 1.5787651330417432 7.545739705597822 26.864379526322324 1 -1 0
1519 0 3 0 1.3681778926479602 7.805453751864025 27.810058152908386 1 -1 0
1521 0 2 0 2.146361272347808 8.327360280503905 27.907382253155774 1 -1 0
3703 0 3 0 1.7835231262336535 6.570258813111964 25.22507875800052 1 0 0
2319 0 2 0 1.080281614901675 6.024733605587204 28.458604756893198 0 0 0
3705 0 2 0 2.240870277982855 5.770576821691302 25.530849268115094 1 0 0
2266 0 1 0 4.413969149879342 10.463522855582763 3.5231321680333867 1 0 0
2258 0 1 0 2.2496089762486458 11.648710761590578 3.300074004953444 1 0 0
909 0 1 0 1.5357801310535988 12.894766806507565 3.235077266539681 1 0 0
907 0 1 0 1.561453620116016 10.400254113182132 3.31160921538216 1 0 0
2268 0 1 0 4.385614992370439 12.895728320776874 3.3656399268614328 1 0 0
2267 0 1 0 3.6605514641338304 11.67864415757952 3.44506840376552 1 0 0
958 0 1 0 0.10456092306116072 12.88404759676209 3.1612946857911277 1 0 0
956 0 1 0 0.10045116170460386 10.432385753563986 3.1222733005680676 1 0 0
1061 0 2 0 0.3927373595499502 9.832127996041052 7.082577400060938 0 0 0
2556 0 2 0 3.2720787681684453 12.73364930166689 9.346585135906393 0 0 0
1716 0 2 0 3.128049070515249 12.235625340739135 6.852697953737666 0 -1 0
3394 0 3 0 1.290736479438067 12.170857581239012 10.109276512751057 1 0 0
2554 0 3 0 4.249620969724157 12.860434560522831 9.351189544365722 0 0 0
3396 0 2 0 0.48280050359470306 12.370730558067027 9.680902672424864 1 0 0
2555 0 2 0 4.563109933678801 12.796613918918972 8.43555935924693 0 0 0
2916 0 2 0 3.6684214148943544 10.217790019127063 10.888019687456335 1 -1 0
1248 0 2 0 4.509530629268332 9.387616565276636 9.36549997736661 0 0 0
3395 0 2 0 1.1942600013913063 11.245560077265237 10.415061660719864 1 0 0
1060 0 3 0 1.229003793161611 9.877457658430005 7.569428530001935 0 0 0
2154 0 2 0 1.4832517810442134 13.225107707522747 11.751211601751884 1 -1 0
2915 0 2 0 4.48588010530488 11.546170103566798 10.670503310926225 1 -1 0
2914 0 3 0 4.563157433965897 10.604461573265965 10.976888607030494 1 -1 0
1062 0 2 0 1.6966410214981433 10.619796444290227 7.1459212814594695 0 0 0
1714 0 3 0 2.1538156219842777 12.361706200091596 6.956190723751651 0 -1 0
1745 0 2 0 1.651135871454873 9.295309634358585 9.155481395985472 1 -1 0
1715 0 2 0 1.9705841636715256 13.279026246896397 6.565059040790599 0 -1 0
1600 0 3 0 3.2195161858915995 11.725823887866884 18.401555523174995 0 -1 0
757 0 3 0 1.7064379845141424 12.212560391773458 14.67759239840209 1 0 0
1602 0 2 0 3.1937127011221786 12.672109446177659 18.59980034709571 0 -1 0
759 0 2 0 2.586869587331009 11.845595457491736 14.510178144418077 1 0 0
531 0 2 0 1.3104231000556792 10.840016631678923 17.97893881642346 0 -1 0
722 0 2 0 4.568310884831608 11.648596765081628 13.352617704066763 0 0 0
758 0 2 0 1.1644237219345843 11.415640176868402 14.349650917467287 1 0 0
235 0 3 0 0.7167168553644233 9.538421229749073 13.837978631642022 0 -1 0
529 0 3 0 0.6288836135160636 10.245631661409337 17.598995256353227 0 -1 0
723 0 2 0 4.564011315653817 10.846268846059258 14.725920613445815 0 0 0
2152 0 3 0 1.7683691871860001 13.75213605405409 12.54659402737059 1 -1 0
721 0 3 0 4.098784300882501 10.983057700183545 13.89917159819956 0 0 0
680 0 2 0 3.972472884402709 10.582173282660882 17.18744249012958 0 0 0
2935 0 3 0 4.525482155244907 13.677495645499882 12.697189597646231 1 -1 0
2153 0 2 0 1.6170481612372514 13.282880552087486 13.41976004794191 1 -1 0
3722 0 2 0 3.6191878208206427 9.479351878773183 13.13202443122752 1 0 0
679 0 3 0 4.35819472708378 9.857877630597391 16.669879544728325 0 0 0
3936 0 2 0 1.0661066351870523 13.780594652726538 15.896066543612925 1 0 0
2937 0 2 0 3.553822189655508 13.646585457058958 12.581107922598399 1 -1 0
3065 0 2 0 0.1303682460600395 9.858313259878134 19.66774410068722 1 -1 0
585 0 2 0 3.4332001303760813 10.084488876701364 21.725127653837276 0 -1 0
2946 0 2 0 0.47940526779790726 13.014729612228907 20.12870359213271 1 -1 0
287 0 2 0 3.8974491307833707 13.639458917046944 22.35388497085951 1 -1 0
2617 0 3 0 2.344606511902432 10.335354510003725 23.268949119514197 0 0 0
1601 0 2 0 3.3479482183451865 11.304576481818026 19.229298649219015 0 -1 0
583 0 3 0 3.9949487700143864 10.351674836552448 20.998522813523937 0 -1 0
2619 0 2 0 2.5237609355490056 11.332334820400186 23.153878329990125 0 0 0
584 0 2 0 4.668145210483482 10.914935736272128 21.43014515139205 0 -1 0
2618 0 2 0 1.445515659197602 10.249024659356204 23.569413269765473 0 0 0
288 0 2 0 2.673724058164851 13.704375234571208 23.460300302574566 1 -1 0
286 0 3 0 3.0168552208849846 13.210398526681722 22.612753106455756 1 -1 0
3326 0 2 0 3.0443022966073596 10.101129736687211 24.805967213423326 1 -1 0
1112 0 2 0 4.407451362550916 12.997971551463293 26.140475737245232 0 0 0
672 0 2 0 1.4419839630331712 13.264829821288746 25.228918561382923 0 0 0
1041 0 2 0 2.3457104406957416 13.099869807193205 27.51971981014451 0 0 0
3327 0 2 0 4.297700066280314 10.801249290135415 25.494818444842394 1 -1 0
3013 0 3 0 1.3510197730018214 11.921461039764806 26.411015576610396 1 -1 0
3014 0 2 0 2.13150058997178 11.473285626784849 25.988975101495424 1 -1 0
3325 0 3 0 3.4204696270958896 10.354384066397742 25.701750985137085 1 -1 0
3015 0 2 0 0.635177471533963 11.258984998743598 26.662264209863025 1 -1 0
1040 0 2 0 3.2422039687378894 13.531124299878844 28.683339308370982 0 0 0
1039 0 3 0 3.082541899813912 13.653135163711504 27.751380249261707 0 0 0
1352 0 1 0 2.2753937237106125 16.57503146676693 3.0256761664512197 1 -1 0
1361 0 1 0 3.710560295267735 16.504980019298323 3.006069077579992 1 -1 0
2270 0 1 0 4.3976330709211755 15.332812702821707 3.121988477123772 1 0 0
901 0 1 0 1.5466902328214247 15.303449487538899 3.125658498078959 1 0 0
3 0 1 0 1.534716066259798 17.76043348652549 2.9340314205283873 1 -1 0
1362 0 1 0 4.382450179000617 17.794834953842354 2.881361192404792 1 -1 0
2269 0 1 0 3.6953800439540636 14.149932352309182 3.233929283605515 1 0 0
2260 0 1 0 2.2646189805782915 14.073953685308673 3.2102062219346372 1 0 0
664 0 3 0 1.0787866813756948 14.809196623386587 6.106858038642063 0 0 0
666 0 2 0 0.7387737442318971 15.705860043272128 6.093096951223354 0 0 0
844 0 3 0 3.1370493987525148 18.050778109135425 5.844105887232762 0 0 0
960 0 1 0 0.10357891648914268 15.319642151081762 3.073652636706012 1 0 0
52 0 1 0 0.1016500957549414 17.78145953179598 2.8880124446491333 1 -1 0
665 0 2 0 0.27991801285065504 14.229196475597472 5.966078267283193 0 0 0
847 0 3 0 2.4957954530951683 16.056065104566603 8.221005389065063 0 -1 0
820 0 3 0 1.0478912928044826 17.765393837402527 9.843374261121458 0 -1 0
848 0 2 0 2.136420863400792 15.188868961648948 7.8579310945153535 0 -1 0
2895 0 2 0 4.133625848564418 15.66778511724219 8.745329314372599 1 -1 0
3544 0 3 0 1.3337091988665117 16.360889502862797 12.302034945272721 1 -1 0
135 0 2 0 3.844424051139065 18.18796722440895 11.940503810167078 0 -1 0
3545 0 2 0 1.574574209413814 15.393566155574716 12.422004767339125 1 -1 0
845 0 2 0 2.7118611629117386 17.311764912213068 6.291188865667359 0 0 0
849 0 2 0 2.110744729364243 16.262255059048695 9.102914101120852 0 -1 0
821 0 2 0 1.0735135462973466 17.350642210621547 10.724569255952161 0 -1 0
3546 0 2 0 2.128645105411902 16.8418541199204 12.374829026223937 1 -1 0
3935 0 2 0 0.13886139806351327 14.73090318854593 16.670687567007104 1 0 0
1082 0 2 0 2.2556641128529544 17.705756005883373 16.68324231835423 0 0 0
1571 0 2 0 1.935445874312963 16.155943201989622 15.193577504742011 0 -1 0
3934 0 3 0 1.0424118377349454 14.601495510081335 16.385405611571787 1 0 0
1572 0 2 0 3.3999255818951912 16.769489321705308 14.92071266533831 0 -1 0
1629 0 2 0 3.6920360161165586 15.116948975881071 18.37364292725054 1 -1 0
1570 0 3 0 2.449155531117673 17.0092317306401 15.119671738755983 0 -1 0
1083 0 2 0 2.2882697725940955 17.78867374765804 18.295609332179062 0 0 0
1627 0 3 0 2.845614763713787 14.721679650589051 18.490543225955 1 -1 0
1628 0 2 0 2.3010232012193677 14.769597710813837 17.63677834466991 1 -1 0
2936 0 2 0 4.664061526104566 14.493815867178556 13.21224909165129 1 -1 0
1081 0 3 0 2.1235065824931683 18.28058741531336 17.493626148324008 0 0 0
2819 0 2 0 1.098668849310093 18.40723751095222 13.95374500647781 1 -1 0
134 0 2 0 3.283979188045185 18.50145209376213 13.291409241513367 0 -1 0
2782 0 3 0 0.20349355059706214 15.685296912729832 22.955082330170463 1 -1 0
2882 0 2 0 2.231816594999248 14.283985069837255 21.545630791184404 1 -1 0
2783 0 2 0 0.8001828029127046 15.472175498998972 22.237419212879402 1 -1 0
3025 0 3 0 4.103641466219003 16.553160871736885 23.67601684526535 1 -1 0
3539 0 2 0 1.2505257711625866 17.977304734261867 20.106780036230965 1 -1 0
2784 0 2 0 0.5746034794450857 16.565072998926276 23.143202485808263 1 -1 0
1418 0 2 0 4.184364491637867 17.546946090919874 20.630785428140975 1 -1 0
2883 0 2 0 2.171845272708144 14.901848397057705 20.024386091332996 1 -1 0
3540 0 2 0 2.0166133123285093 16.70071183053632 20.438879800657524 1 -1 0
3027 0 2 0 4.020002918099742 16.606831876494887 24.653664010747107 1 -1 0
2881 0 3 0 1.6884411686338938 14.78776980637168 20.865741397930776 1 -1 0
3026 0 2 0 4.197589907112281 17.481064061842634 23.34923389085826 1 -1 0
3538 0 3 0 2.067068619088087 17.662030025476206 20.540390712821026 1 -1 0
671 0 2 0 0.9493578851936094 14.412922746666364 24.316989322428643 0 0 0
3675 0 2 0 1.4859081218182622 18.15459964210102 22.35318418736479 1 0 0
3673 0 3 0 1.0711479571339495 18.15110770367346 23.204504736589463 1 0 0
670 0 3 0 1.7832064053496675 14.07302095922593 24.722581442798703 0 0 0
2009 0 2 0 0.2993405349634704 14.159696624168216 26.744012873599445 1 0 0
3107 0 2 0 3.2395041748346816 15.90116682502448 26.80172255614911 1 -1 0
3106 0 3 0 3.6303659527758527 16.763309193727174 26.585704062773072 1 -1 0
3108 0 2 0 4.088458121627075 17.002541770360853 27.40970840977102 1 -1 0
1356 0 1 0 2.280382303645568 21.522186236390567 2.8346472736640442 1 -1 0
1363 0 1 0 3.686234179748942 19.014215446404435 2.8373958702155164 1 -1 0
1366 0 1 0 4.403782345532231 22.715357082708856 2.865570467532287 1 -1 0
1364 0 1 0 4.422209003319135 20.200060505501508 2.818827539443348 1 -1 0
7 0 1 0 1.5804509814497758 22.732225590958084 2.840491538648009 1 -1 0
1365 0 1 0 3.720434994308004 21.460241093912938 2.9234658060975836 1 -1 0
1354 0 1 0 2.263106005655205 19.03128520471365 2.880338020700975 1 -1 0
5 0 1 0 1.5778799761530815 20.275426350269694 2.873870721590802 1 -1 0
56 0 1 0 0.17590807872561617 22.75959681894151 2.87374662380048 1 -1 0
838 0 3 0 0.39158903864863276 22.779503449612317 6.121011662440202 0 -1 0
54 0 1 0 0.16903203940013833 20.314474176178116 2.8126096146731094 1 -1 0
846 0 2 0 2.5505136291629658 18.761745625704638 5.936421353280246 0 0 0
840 0 2 0 0.022984808265505308 22.898043172659218 5.217474742446028 0 -1 0
133 0 3 0 3.2155490864389367 18.82879014221216 12.407293819864767 0 -1 0
1271 0 2 0 4.35463132388674 22.053754118913872 11.866750225138063 0 -1 0
822 0 2 0 1.5663638421212704 18.598723733764754 9.962317069667334 0 -1 0
1272 0 2 0 4.423041206219948 20.574534762956077 11.788988485047756 0 -1 0
3837 0 2 0 0.5474013154912544 22.463790620010737 12.434978393299373 1 -1 0
3790 0 3 0 1.2693307037324097 20.12744121549628 6.864569747754392 1 0 0
3343 0 3 0 4.56713263931471 21.78476521124386 7.541565784369114 1 -1 0
3792 0 2 0 1.5679113185652527 20.213172088371998 7.775856481651086 1 0 0
3791 0 2 0 1.100569234766515 20.99582740459769 6.438723671521715 1 0 0
2132 0 2 0 1.3223093771028995 20.622388073422652 10.357111918598331 0 -1 0
2131 0 3 0 1.924179519235081 21.021537955278923 9.681966757755395 0 -1 0
3344 0 2 0 4.013502420555714 22.212875038421103 6.81358809936286 1 -1 0
1270 0 3 0 4.6893912646421585 21.364294566569225 11.26434059484449 0 -1 0
2133 0 2 0 2.692666830081833 21.035957869989716 10.279888978458697 0 -1 0
3345 0 2 0 4.51893509123388 22.398460466158582 8.321009102530374 1 -1 0
3991 0 3 0 0.13773180095095056 20.47215509464494 11.664005059615553 1 0 0
2244 0 2 0 1.2698047273870718 22.91611879305839 9.34883632231842 1 -1 0
3993 0 2 0 0.39030536033020385 19.987852088120285 12.483248915926717 1 0 0
2820 0 2 0 1.538455233112033 19.84268354707507 14.492595329481412 1 -1 0
1487 0 2 0 3.6386207811977083 19.856165127136357 17.28493554966752 1 -1 0
3475 0 3 0 2.57014677075974 21.372968861076927 15.064106023676272 1 -1 0
3918 0 2 0 1.208719837552062 19.888987499589742 17.618202114145344 1 0 0
3916 0 3 0 1.0041930934155305 20.861318221413615 17.674055679410106 1 0 0
2818 0 3 0 0.8724480859345302 19.346354781995295 14.064571940705976 1 -1 0
3477 0 2 0 2.853548016683952 21.628843115657745 14.184224489221876 1 -1 0
3476 0 2 0 3.323195999904165 21.24412986935639 15.690489815934468 1 -1 0
1486 0 3 0 4.113593398074088 20.680275066072277 17.16269803475425 1 -1 0
3917 0 2 0 1.5769768849283146 21.33788726475761 17.061879317503422 1 0 0
3408 0 2 0 0.810964242104214 21.648731437680112 19.348129226859754 1 -1 0
744 0 2 0 4.02360753213974 19.883920139627502 21.780759643022158 0 -1 0
3233 0 2 0 1.870999369998691 19.358098408626837 24.447086673900607 1 0 0
715 0 3 0 2.881478704177448 22.739425521639465 23.36664922253048 0 -1 0
3128 0 2 0 4.307608484345862 22.444004994948504 24.630401107279027 1 -1 0
743 0 2 0 3.5909809970895297 19.965141786593346 23.33794557880661 0 -1 0
3406 0 3 0 0.51800335771855 21.611289460646955 20.297421299128157 1 -1 0
139 0 3 0 3.342476588529633 21.127818769015306 20.362581003008007 0 -1 0
140 0 2 0 2.4017522346186486 21.36198899069832 20.662277695803063 0 -1 0
742 0 3 0 4.3178571042573015 19.615581489014353 22.754223520630863 0 -1 0
3674 0 2 0 0.37883520896362444 18.82422426434792 23.25436063768202 1 0 0
141 0 2 0 3.2149197778104472 20.954069831316914 19.39446823770982 0 -1 0
3288 0 2 0 4.608487114230254 22.673567639725974 20.23304639884339 1 -1 0
717 0 2 0 2.036980976832926 23.13966566501845 23.623238288059742 0 -1 0
2094 0 2 0 3.8951602815539483 21.083770454105885 30.060655017810213 0 -1 0
2463 0 2 0 2.0613536767714025 20.75656940789432 26.74649091023743 0 0 0
2462 0 2 0 2.5913590901272197 22.055816967609267 27.388460058151583 0 0 0
3232 0 3 0 2.556616976140381 19.783341023337623 25.01553983852758 1 0 0
2461 0 3 0 2.0921867085354227 21.28712796065147 27.565112787824056 0 0 0
2093 0 2 0 3.144661819539439 20.34169995521431 28.95598780338275 0 -1 0
2092 0 3 0 3.6690436454374886 20.122192731376668 29.75829109769537 0 -1 0
3234 0 2 0 3.0622933341451297 19.011110174962333 25.308607908111657 1 0 0
981 0 2 0 0.45827157278902686 21.63968733347713 28.089053255697312 1 -1 0
2334 0 2 0 4.74382948481769 18.707239725455644 29.495252059183304 0 0 0
1370 0 1 0 4.37931096277016 27.65167606974717 3.0279377261729525 1 -1 0
9 0 1 0 1.5472463057948724 25.18987236781492 2.934259427301713 1 -1 0
1369 0 1 0 3.626146425423739 26.460573477057284 2.9400574426467156 1 -1 0
1368 0 1 0 4.390395871876581 25.213525513555947 2.8491520829602957 1 -1 0
1358 0 1 0 2.272443540721768 23.953166782867427 2.892764009469945 1 -1 0
1360 0 1 0 2.2057980241181934 26.422553245950066 3.0152781636447687 1 -1 0
1367 0 1 0 3.7250651805046755 23.94324332554867 2.7769160734189735 1 -1 0
1 0 1 0 1.4449397981423706 27.659594118994626 3.1191057649416427 1 -1 0
58 0 1 0 0.15338197257183042 25.265431837073177 3.0525562326339535 1 -1 0
3727 0 3 0 3.3346774534051677 23.26262576507772 5.811619481736016 1 -1 0
60 0 1 0 0.05750409920828308 27.733149465320057 3.318043094770523 1 -1 0
3728 0 2 0 3.654943369168537 24.13303492942768 5.69648907247611 1 -1 0
3729 0 2 0 2.3724032247615 23.286845549106395 5.793982291247068 1 -1 0
2243 0 2 0 1.094662992192692 24.528363712294475 9.24760099481241 1 -1 0
2197 0 3 0 0.8886349626002518 26.229070080516564 8.597272438580335 0 -1 0
3592 0 3 0 4.122517543786781 26.44747329535127 11.566819058131944 1 -1 0
3131 0 2 0 2.4143739815544643 23.402676994437353 12.49969535962062 1 -1 0
2198 0 2 0 1.8207588541669855 26.520284447506082 8.510495492402706 0 -1 0
2199 0 2 0 0.3969482111526098 26.520889968994155 9.437628472143148 0 -1 0
3594 0 2 0 4.366837140218868 26.360606533367193 10.581280730495077 1 -1 0
3495 0 2 0 3.7372892081599915 26.985397740102243 7.6281963517949745 0 -1 0
1980 0 2 0 0.045927238861598996 26.552708303261472 11.851748906806595 0 -1 0
3493 0 3 0 3.6880530927527917 27.16470277189173 8.575662626422227 0 -1 0
3836 0 2 0 0.4079780580124185 23.64893566410101 11.510881890149806 1 -1 0
2242 0 3 0 0.7133885788985003 23.67450410502377 9.564454897768115 1 -1 0
3835 0 3 0 0.4842314802117805 23.40895106197174 12.465594027321522 1 -1 0
861 0 2 0 2.8777698558813674 23.696180657662275 15.537096707183622 0 -1 0
1533 0 2 0 2.165738098790667 26.101669925879264 12.773239178879084 0 -1 0
190 0 3 0 1.6595568445201694 23.90502997963168 17.204240622931344 0 -1 0
1532 0 2 0 1.3940769865384666 27.14615528806784 13.686588553195667 0 -1 0
191 0 2 0 2.5554331811611823 24.14395189621682 17.448183774763027 0 -1 0
192 0 2 0 1.058607936306003 24.51319690559459 17.73376065435263 0 -1 0
860 0 2 0 3.5589535212428234 25.073956302550133 15.340853428687076 0 -1 0
1531 0 3 0 1.261281968140203 26.301453034879636 13.131317017421843 0 -1 0
3130 0 3 0 3.335367907194716 23.237995405523172 12.669250275378927 1 -1 0
859 0 3 0 3.785764880028873 24.09626476421798 15.27537964625627 0 -1 0
3132 0 2 0 3.6237826415222796 23.779779010768085 13.424386281058133 1 -1 0
2056 0 3 0 4.244565861996039 25.679619353224744 18.57712308979616 0 -1 0
3032 0 2 0 3.8296816918992955 25.59354880142466 22.09288865013651 1 -1 0
2685 0 2 0 2.1399222316077258 27.3085782274511 21.52675253510793 0 -1 0
3031 0 3 0 4.438293790775155 24.972325552993567 22.506585994319167 1 -1 0
3911 0 2 0 1.4787805159634626 25.380046377554354 23.49197007018581 1 0 0
3910 0 3 0 0.8574600118382233 24.720367125849 23.869984077935513 1 0 0
716 0 2 0 3.339607518820969 23.465852107405418 22.964638843799793 0 -1 0
2684 0 2 0 1.4166803873751428 25.95281762572166 20.900394180931382 0 -1 0
2683 0 3 0 2.0389622159455394 26.30021028715424 21.559044182074697 0 -1 0
2058 0 2 0 4.452728887634845 24.912810394750377 19.150349032710473 0 -1 0
2057 0 2 0 3.911194714722683 26.321989557670133 19.1838509610041 0 -1 0
84 0 2 0 0.04831042235285201 23.52502305883442 22.55823131856956 0 -2 0
3033 0 2 0 4.633367168879764 24.34926570955189 21.74352743035232 1 -1 0
2044 0 3 0 0.0019694966541834447 25.65469953561679 19.289687139659133 1 -1 0
3953 0 2 0 3.096647599072535 26.841308365020684 30.04977228785887 1 0 0
2542 0 3 0 1.8679528461511352 25.43183430660732 26.35582078481301 1 0 0
2544 0 2 0 2.026544160172838 26.463776616459185 26.40332995380855 1 0 0
819 0 2 0 3.0000309195773327 24.460217783306483 27.03280226127973 0 -1 0
2543 0 2 0 1.438062066558866 25.189469049619397 25.534913404582195 1 0 0
445 0 3 0 1.7539319117832617 23.284560819058395 30.66466079408498 0 -1 0
1231 0 3 0 4.801159100445429 26.68296758076999 28.971202164495686 0 0 0
3952 0 3 0 2.3114959652763583 27.00461991416211 30.604616440853075 1 0 0
3954 0 2 0 1.7490415544846585 26.23313359809625 30.642919982474822 1 0 0
1224 0 2 0 0.5546904994161452 25.697710905274075 27.55013560617902 0 0 0
818 0 2 0 4.255717096041086 23.673930320653184 26.77458877978104 0 -1 0
817 0 3 0 3.490247533215725 23.590806271554797 27.35964974809967 0 -1 0
2912 0 2 0 4.542950943080118 23.446442985342753 29.172557846354835 1 -1 0
2911 0 3 0 4.557705805248096 23.317997095368767 30.11149980331535 1 -1 0
447 0 2 0 2.699534730690204 23.243452356185696 30.842895600682883 0 -1 0
446 0 2 0 1.7684417777696606 23.47059198077578 29.69106127939467 0 -1 0
453 0 1 0 1.515019378606533 30.07659899085296 3.267810641900555 1 -1 0
1811 0 1 0 3.6495450082726655 28.855981671121057 3.2110847495452552 1 -1 0
1813 0 1 0 3.638218874106239 31.34262953094665 3.487493591492358 1 -1 0
1812 0 1 0 4.368735815220658 30.071414151558123 3.3654357938594357 1 -1 0
1804 0 1 0 2.2248674756352917 31.29372980648387 3.537566900278512 1 -1 0
1802 0 1 0 2.1600653305554958 28.830854495320953 3.1809355407376074 1 -1 0
502 0 1 0 0.14586034027018463 30.139405227363437 3.3976706018954497 1 -1 0
1963 0 3 0 0.7193552811921339 30.651391319541638 6.207515366189983 1 -1 0
763 0 3 0 2.164868224769213 32.40016602834899 12.103757754878648 0 -1 0
373 0 3 0 3.103094891512308 30.033865550304878 7.949251577387643 0 -1 0
374 0 2 0 2.2623278034997263 30.15053128951759 7.457407115749638 0 -1 0
3266 0 2 0 3.7253773617184707 30.822920342737508 9.580008431353075 1 -1 0
3265 0 3 0 4.299609866270028 30.86482299414173 10.351175041232972 1 -1 0
3494 0 2 0 3.685967638492836 28.18049024376318 8.62294096061901 0 -1 0