LAMMPS (4 Feb 2025)
OMP_NUM_THREADS environment is not set. Defaulting to 1 thread. (src/comm.cpp:99)
  using 1 OpenMP thread(s) per MPI task
# LAMMPS script for continuing NVT simulation

atom_modify map yes
newton      on

read_restart nvt_prod.restart.880000
Reading restart file ...
  restart file = 4 Feb 2025, LAMMPS = 4 Feb 2025
  restoring atom style full from restart
  orthogonal box = (0 0 0) to (153.54598 147.74968 151.07317)
  16 by 8 by 8 MPI processor grid
  pair style symmetrix/mace stores no restart info
  11640 atoms
Finding 1-2 1-3 1-4 neighbors ...
  special bond factors lj:    0        0        0       
  special bond factors coul:  0        0        0       
     0 = max # of 1-2 neighbors
     0 = max # of 1-3 neighbors
     0 = max # of 1-4 neighbors
     1 = max # of special neighbors
  special bonds CPU = 3.872 seconds
  read_restart CPU = 4.042 seconds

pair_style  symmetrix/mace
pair_coeff  * * ../../../00-common/models/ch2o-dens-inv_swa-1-6-8.json C H O
Loading MACE model from '../../../00-common/models/ch2o-dens-inv_swa-1-6-8.json' ... success
  mapping LAMMPS type 1 (C) to MACE type 1
  mapping LAMMPS type 2 (H) to MACE type 0
  mapping LAMMPS type 3 (O) to MACE type 2

group graphene type 1
8640 atoms in group graphene
group H2O type 2 3
3000 atoms in group H2O

thermo 1000

######### NVT production for 80 ps #############

dump DUMP1 all atom 100 nvt_prod_11.lammpstrj
timestep 0.001
fix NVT1 graphene nvt temp 300 300 0.1
Resetting global fix info from restart file:
  fix style: nvt, fix ID: NVT1
fix NVT2 H2O nvt temp 300 300 0.1
Resetting global fix info from restart file:
  fix style: nvt, fix ID: NVT2
run 80000
All restart file global fix info was re-assigned
Neighbor list info ...
  update: every = 1 steps, delay = 0 steps, check = yes
  max neighbors/atom: 2000, page size: 100000
  master list distance cutoff = 8
  ghost atom cutoff = 8
  binsize = 4, bins = 39 37 38
  1 neighbor lists, perpetual/occasional/extra = 1 0 0
  (1) pair symmetrix/mace, perpetual
      attributes: full, newton on
      pair build: full/bin
      stencil: full/bin/3d
      bin: standard
Per MPI rank memory allocation (min/avg/max) = 5.921 | 6.185 | 8.045 Mbytes
   Step          Temp          E_pair         E_mol          TotEng         Press     
    880000   302.3814      -1809920.1      0             -1809465.1      91.183715    
    881000   295.52297     -1809917.4      0             -1809472.8      63.450158    
    882000   299.3446      -1809920.1      0             -1809469.7      58.601451    
    883000   300.19399     -1809916.4      0             -1809464.8      30.468366    
    884000   299.89105     -1809916.1      0             -1809464.9      38.51906     
    885000   300.78497     -1809923.7      0             -1809471.1      119.76625    
    886000   296.13251     -1809923.7      0             -1809478.1      147.77434    
    887000   300.30653     -1809918.4      0             -1809466.6      87.623706    
    888000   298.78802     -1809926        0             -1809476.5      5.2394339    
    889000   296.47377     -1809919.4      0             -1809473.4     -16.731506    
    890000   303.65328     -1809924.8      0             -1809468        115.63861    
    891000   303.58996     -1809919.1      0             -1809462.4      140.88079    
    892000   301.58669     -1809920.5      0             -1809466.7      94.962428    
    893000   296.53916     -1809924.2      0             -1809478.1      6.3125618    
    894000   298.30868     -1809915.3      0             -1809466.5      39.976683    
    895000   299.1405      -1809916.7      0             -1809466.6      88.517957    
    896000   300.64894     -1809916.5      0             -1809464.2      112.22919    
    897000   299.4031      -1809915.9      0             -1809465.4      85.591081    
    898000   301.93172     -1809919.7      0             -1809465.4      57.744206    
    899000   298.51139     -1809918        0             -1809468.9      35.896084    
    900000   302.31606     -1809917.9      0             -1809463        61.539268    
    901000   300.97124     -1809916.8      0             -1809464        89.11251     
    902000   298.51899     -1809918.6      0             -1809469.5      60.165968    
    903000   301.26163     -1809913.1      0             -1809459.9      78.423753    
    904000   301.98884     -1809925.1      0             -1809470.8      96.053554    
    905000   295.54176     -1809913.2      0             -1809468.5      55.048533    
    906000   301.20585     -1809911.2      0             -1809458        66.959931    
    907000   300.90922     -1809916.6      0             -1809463.9      62.413003    
    908000   298.11332     -1809921.9      0             -1809473.4      46.464896    
    909000   301.0838      -1809917.3      0             -1809464.3      83.211135    
    910000   302.55622     -1809916.9      0             -1809461.7      70.560372    
    911000   301.41863     -1809918.1      0             -1809464.6      94.377549    
    912000   303.23514     -1809913.2      0             -1809457        13.81382     
    913000   300.54961     -1809915.6      0             -1809463.4      18.370313    
    914000   299.4935      -1809920.4      0             -1809469.9      78.097181    
    915000   299.33607     -1809914.8      0             -1809464.4      98.565804    
    916000   296.73447     -1809919.4      0             -1809473        100.45316    
    917000   299.4462      -1809918.7      0             -1809468.2      76.747574    
    918000   296.94949     -1809917.1      0             -1809470.4      60.872514    
    919000   294.74201     -1809917.8      0             -1809474.3      64.846169    
    920000   303.23541     -1809917.5      0             -1809461.3      70.466657    
    921000   297.70164     -1809918.5      0             -1809470.6      108.32321    
    922000   299.29661     -1809920.9      0             -1809470.6      48.35122     
    923000   301.06691     -1809913.5      0             -1809460.5      40.485929    
    924000   297.49262     -1809924.2      0             -1809476.6      69.639662    
    925000   302.80826     -1809919.5      0             -1809463.9      72.566305    
    926000   299.00681     -1809919.6      0             -1809469.7      60.845279    
    927000   300.43293     -1809924.8      0             -1809472.8      70.41967     
    928000   297.79024     -1809916.1      0             -1809468.1      94.288617    
    929000   297.95504     -1809917.8      0             -1809469.5      101.5903     
    930000   294.49602     -1809927.3      0             -1809484.3      100.74173    
    931000   298.70279     -1809919.1      0             -1809469.7      52.004377    
    932000   299.29074     -1809912.2      0             -1809461.9      47.413347    
    933000   299.3705      -1809922.4      0             -1809472        56.74178     
    934000   297.26283     -1809924.9      0             -1809477.7      44.691985    
    935000   300.02128     -1809923.7      0             -1809472.4      84.877764    
    936000   301.57187     -1809914.4      0             -1809460.7      152.83822    
    937000   297.46605     -1809913.9      0             -1809466.4      119.2699     
    938000   296.22764     -1809919.8      0             -1809474.2      45.886162    
    939000   300.88638     -1809914.8      0             -1809462.1     -8.9417426    
    940000   297.78128     -1809921.7      0             -1809473.7      53.296327    
    941000   297.58926     -1809920.9      0             -1809473.2      95.284388    
    942000   297.75732     -1809913.1      0             -1809465.1      66.92329     
    943000   297.76783     -1809922.6      0             -1809474.7      93.700151    
    944000   301.58708     -1809917.2      0             -1809463.4      117.73766    
    945000   300.80781     -1809915.5      0             -1809463        55.785962    
    946000   297.22131     -1809917.9      0             -1809470.7      59.455301    
    947000   300.51015     -1809916.2      0             -1809464.1      66.653171    
    948000   300.22773     -1809919.3      0             -1809467.6      67.190252    
    949000   303.60054     -1809924.1      0             -1809467.3      83.302364    
    950000   299.1818      -1809921.8      0             -1809471.7      55.165644    
    951000   299.97867     -1809914.6      0             -1809463.3      45.495853    
    952000   302.02867     -1809911.9      0             -1809457.5      95.401212    
    953000   297.68729     -1809912.7      0             -1809464.8      74.79554     
    954000   300.08206     -1809913.7      0             -1809462.2      61.78322     
    955000   300.4344      -1809924.6      0             -1809472.6      59.792216    
    956000   300.01845     -1809918.6      0             -1809467.2      14.514814    
    957000   303.80674     -1809915.5      0             -1809458.4      36.421003    
    958000   295.58359     -1809919.8      0             -1809475.1      101.90449    
    959000   301.46202     -1809919.6      0             -1809466        97.842723    
    960000   298.9181      -1809916.5      0             -1809466.8      93.20989     
Loop time of 58140.2 on 1024 procs for 80000 steps with 11640 atoms

Performance: 0.119 ns/day, 201.876 hours/ns, 1.376 timesteps/s, 16.016 katom-step/s
100.0% CPU use with 1024 MPI tasks x 1 OpenMP threads

MPI task timing breakdown:
Section |  min time  |  avg time  |  max time  |%varavg| %total
---------------------------------------------------------------
Pair    | 1483.2     | 5642       | 16857      |5199.9 |  9.70
Bond    | 0.0051411  | 0.0079781  | 0.022879   |   1.6 |  0.00
Neigh   | 0.064676   | 0.13855    | 0.8442     |  38.7 |  0.00
Comm    | 39.236     | 1964.7     | 7570.5     |2975.4 |  3.38
Output  | 0.55523    | 4.5415     | 8.5669     | 108.1 |  0.01
Modify  | 38945      | 50523      | 56563      |2099.7 | 86.90
Other   |            | 6.189      |            |       |  0.01

Nlocal:        11.3672 ave         265 max           0 min
Histogram: 881 3 111 8 6 6 7 0 0 2
Nghost:        99.5615 ave        1608 max           0 min
Histogram: 768 115 101 12 7 6 7 3 3 2
Neighs:              0 ave           0 max           0 min
Histogram: 1024 0 0 0 0 0 0 0 0 0
FullNghs:      1227.57 ave       50212 max           0 min
Histogram: 894 104 4 7 3 7 3 0 0 2

Total # of neighbors = 1257032
Ave neighs/atom = 107.99244
Ave special neighs/atom = 0
Neighbor list builds = 3656
Dangerous builds = 0

write_restart nvt_prod.restart.*
System init for write_restart ...
write_data nvt_prod_final.lammps-data
System init for write_data ...

Total wall time: 16:09:22
