LAMMPS data file via write_data, version 4 Feb 2025, timestep = 960000, units = metal

11640 atoms
3 atom types

0 153.54597599999997 xlo xhi
0 147.74968429430638 ylo yhi
0 151.07316997686289 zlo zhi

Masses

1 12.01099999691024
2 1.007999999740698
3 15.99899999588435

Atoms # full

482 0 1 0 1.8813602548848762 17.687572002917722 11.006330045339638 6 -2 15
724 0 1 0 8.319840752204017 16.41154191027112 10.88677359886186 6 -2 15
723 0 1 0 6.906404127420251 16.44067456745267 10.781796107983197 6 -2 15
960 0 1 0 8.359413123676411 13.920703760804093 10.802443511724743 6 -1 15
961 0 1 0 9.029392713479517 17.634807932558004 10.751928491128663 6 -2 15
1197 0 1 0 9.045016952204618 15.184683953985322 10.83242897557487 6 -1 15
933 0 1 0 4.836400589757763 0.43236391873936797 12.487100195499076 6 -1 15
937 0 1 0 4.842968554607568 2.8793181936859398 12.290075661165313 6 -1 15
700 0 1 0 4.109911513886344 1.6511084186050684 12.497342653174675 6 -1 15
699 0 1 0 2.728554465256144 1.6982881374913026 12.697425878908518 6 -1 15
698 0 1 0 1.9958352546639946 2.884016451841891 12.542884764530775 6 -1 15
694 0 1 0 2.039282270538155 0.4380222303276348 12.836168636542117 6 -1 15
704 0 1 0 4.111411806903215 4.102098631243996 12.283734826828631 6 -1 15
703 0 1 0 2.6832612576709165 4.131674262911668 12.451541045334569 6 -1 15
934 0 1 0 6.280570736209104 0.43728276646226505 12.351349726795082 6 -1 15
938 0 1 0 6.2737480790950375 2.8913044284992444 12.155507780470753 6 -1 15
939 0 1 0 6.989702507099436 1.6749530338312624 12.260630989058674 6 -1 15
940 0 1 0 8.40947738026084 1.6444771503570603 12.202812429582737 6 -1 15
1173 0 1 0 9.088580438159205 0.4089700634859535 12.221314189435136 6 -1 15
1177 0 1 0 9.08576969503142 2.8675894881619435 12.075140003460442 6 -1 15
943 0 1 0 6.977929153847148 4.103505838942667 11.914022265426812 6 -1 15
944 0 1 0 8.372039718599451 4.072965870636336 11.9487759944466 6 -1 15
941 0 1 0 4.864954575993381 5.355651458341474 12.058535370582884 6 -1 15
945 0 1 0 4.800979095623056 7.855243164405583 11.846654686035727 6 -1 15
708 0 1 0 4.131239672465213 6.6289910538868275 12.087090363181211 6 -1 15
707 0 1 0 2.7141171530454473 6.661496507259501 12.30325880800452 6 -1 15
706 0 1 0 2.0247172030606917 7.8306460853241 12.195214257954207 6 -1 15
702 0 1 0 2.026872023869797 5.40425457968786 12.439711976970369 6 -1 15
942 0 1 0 6.275330249274101 5.376918739960699 11.90807471535395 6 -1 15
946 0 1 0 6.250830270432902 7.840603656444897 11.720903286010977 6 -1 15
947 0 1 0 6.959588221567388 6.614041313878422 11.673642931861156 6 -1 15
948 0 1 0 8.37570613475322 6.596661315309845 11.57069209592084 6 -1 15
1181 0 1 0 9.136785955338683 5.376869598336128 11.736039303299869 6 -1 15
1185 0 1 0 9.111263552043424 7.800349617654923 11.496004395006448 6 -1 15
716 0 1 0 4.081988674122161 11.58234576135968 11.633476303240219 6 -1 15
949 0 1 0 4.795485145074126 10.331051997334937 11.645460320647977 6 -1 15
712 0 1 0 4.088813673882255 9.110670765745207 11.872047392423944 6 -1 15
953 0 1 0 4.828320398491504 12.75148520976496 11.260216004842528 6 -1 15
715 0 1 0 2.6691409207121155 11.602079359883522 11.780352643958414 6 -1 15
711 0 1 0 2.7019970867774514 9.13118323593276 12.007024621018411 6 -1 15
710 0 1 0 1.9612390184132498 10.33977047534155 11.88980354704002 6 -1 15
714 0 1 0 1.96484842606329 12.839006029883263 11.697489408482912 6 -1 15
950 0 1 0 6.166279267498557 10.325881529593897 11.564508643252749 6 -1 15
954 0 1 0 6.199156311508861 12.72883945153092 11.070669482368677 6 -1 15
951 0 1 0 6.942318645498848 9.116599604231173 11.695670405619191 6 -1 15
955 0 1 0 6.931751184561708 11.541743485785483 11.308739051194163 6 -1 15
952 0 1 0 8.409696153774076 9.085568204036802 11.557179471209 6 -1 15
956 0 1 0 8.3681547555367 11.502479128300314 11.06254293313866 6 -1 15
1189 0 1 0 9.110470508679164 10.254491107520632 11.174299856634937 6 -1 15
1193 0 1 0 9.071946167187766 12.656105919837826 10.852106658230422 6 -1 15
483 0 1 0 2.596453086097994 16.49074286604411 11.039367867938854 6 -2 15
718 0 1 0 1.9661359398561034 15.224721819222161 11.278939251377963 6 -1 15
721 0 1 0 4.7827608460165365 17.661611356089647 10.721267597876967 6 -2 15
484 0 1 0 4.04953815267185 16.515833751247182 10.962172719198882 6 -2 15
720 0 1 0 4.079789511434566 13.965345416736946 11.189966793192522 6 -1 15
957 0 1 0 4.738209528125425 15.214777034176725 10.955548252301341 6 -1 15
719 0 1 0 2.6710210490234494 14.024390442742739 11.381909544065206 6 -1 15
959 0 1 0 6.884959439884571 13.955322594440986 10.891966581242384 6 -1 15
722 0 1 0 6.193341454605836 17.66432399745732 10.730267393580435 6 -2 15
958 0 1 0 6.146779823015017 15.206805340130424 10.861174135463799 6 -1 15
693 0 1 0 0.5823654917711103 0.42468789610415303 12.850219226450314 6 -1 15
697 0 1 0 0.549051233376093 2.9202766886725637 12.55007787093053 6 -1 15
701 0 1 0 0.6329282318733735 5.421227804669844 12.538585932681006 6 -1 15
709 0 1 0 0.4845067350602091 10.316731289749322 12.014111655040335 6 -1 15
705 0 1 0 0.5773549812420623 7.83310164333247 12.240359677649717 6 -1 15
481 0 1 0 0.47342345166292366 17.736129110810438 11.140500511316004 6 -2 15
717 0 1 0 0.5364861715704539 15.286770917421604 11.407740698766212 6 -1 15
713 0 1 0 0.5476808302755799 12.84057480796043 11.72896842282721 6 -1 15
725 0 1 0 4.765861265995023 20.13326652616841 10.787377688933342 6 -2 15
488 0 1 0 4.048067428166651 18.910814823681285 10.740452006926969 6 -2 15
492 0 1 0 4.03209658622667 21.37195671560692 10.783331525026542 6 -2 15
487 0 1 0 2.5970199093198336 18.880450408198424 10.856610051402939 6 -2 15
491 0 1 0 2.5912009040423927 21.3440200571901 10.696668346978782 6 -2 15
486 0 1 0 1.8693267717107567 20.104722700817554 10.819872228362662 6 -2 15
729 0 1 0 4.739752712252771 22.620741618993616 10.832299261411144 6 -2 15
490 0 1 0 1.8611759524021725 22.579261575424265 10.65435858166275 6 -2 15
726 0 1 0 6.164359590008718 20.080863464862258 10.868327205956595 6 -2 15
727 0 1 0 6.899856501955237 18.88654223303834 10.774301823619776 6 -2 15
731 0 1 0 6.898498762578163 21.326876441756372 11.032054194625328 6 -2 15
728 0 1 0 8.35803826580867 18.919878295020734 10.81254902828542 6 -2 15
732 0 1 0 8.341183688033805 21.350267472626218 10.920255305552207 6 -2 15
965 0 1 0 9.052048055864981 20.14588720386068 10.842222993494001 6 -2 15
730 0 1 0 6.191613371187947 22.61025183177263 11.01724367593178 6 -2 15
969 0 1 0 9.01375736557965 22.623956541352175 11.001440124871088 6 -2 15
746 0 1 0 6.104013182901151 32.53341673271818 11.086067824962416 6 -2 15
500 0 1 0 3.971278832330305 26.27082680423713 10.80396450054039 6 -2 15
733 0 1 0 4.70854114041721 25.062429762895956 10.951687418799334 6 -2 15
496 0 1 0 3.9633138741206357 23.839847586433713 10.819158793400057 6 -2 15
499 0 1 0 2.551109897509952 26.350856286492263 10.742829576944473 6 -2 15
495 0 1 0 2.5286270524465158 23.84483253517139 10.7630956509313 6 -2 15
494 0 1 0 1.8393754124212698 25.11106678754433 10.686942261460072 6 -2 15
734 0 1 0 6.137399807774076 25.029885581476627 10.927046852632836 6 -2 15
739 0 1 0 6.83569704221687 26.347596368545105 10.934291498528651 6 -2 15
735 0 1 0 6.866061982694394 23.83038629476286 11.038404703938097 6 -2 15
973 0 1 0 8.999664623473771 25.138661782508215 11.022642936728891 6 -2 15
736 0 1 0 8.308585408604268 23.879567995926017 11.030184792549685 6 -2 15
740 0 1 0 8.221677358237105 26.389995079700487 10.995232733545109 6 -2 15
504 0 1 0 3.967777263268919 28.761041714223857 10.809107841332024 6 -2 15
741 0 1 0 4.661941505761992 30.080711912342093 10.82007013684275 6 -2 15
737 0 1 0 4.69475025363336 27.551035034478524 10.875407340969723 6 -2 15
508 0 1 0 3.9797541676531005 31.32270064556473 10.911274398241064 6 -2 15
507 0 1 0 2.5279192458059794 31.3124539785678 10.942701146832368 6 -2 15
503 0 1 0 2.558162337699925 28.787600725821555 10.672989003278559 6 -2 15
498 0 1 0 1.8377115754075277 27.587888490487654 10.584939127106493 6 -2 15
502 0 1 0 1.8502877637782138 30.053525277349575 10.71431280532128 6 -2 15
742 0 1 0 6.102208990630942 30.07629010950811 10.900936827450602 6 -2 15
738 0 1 0 6.09181834927826 27.620374006858068 10.870107743915439 6 -2 15
743 0 1 0 6.866847573373781 28.82932321030639 10.956337996365015 6 -2 15
747 0 1 0 6.791198201533268 31.30084398593305 11.145574030289241 6 -2 15
744 0 1 0 8.280542874106667 28.83805299579737 11.115867519565535 6 -2 15
981 0 1 0 9.004440145900297 30.045544296848657 11.239544621363779 6 -2 15
977 0 1 0 8.97556355331976 27.625381852818048 11.04127702504469 6 -2 15
748 0 1 0 8.258876982590511 31.29376345267 11.261564305676258 6 -2 15
510 0 1 0 1.8753761528333088 35.004476718553015 10.964757996239333 6 -2 15
506 0 1 0 1.823808577366829 32.539063679213136 10.869544319435565 6 -2 15
516 0 1 0 3.970184146200322 36.27382833618111 11.266734352472234 6 -2 15
515 0 1 0 2.522925189310077 36.25342574975886 11.141099711225714 6 -2 15
512 0 1 0 3.989536258152692 33.73231055213391 11.11297400521409 6 -2 15
745 0 1 0 4.724165088641276 32.5492139546569 11.010779299495079 6 -2 15
749 0 1 0 4.621284701750693 34.9809629935887 11.25249161917366 6 -2 15
511 0 1 0 2.549200293835371 33.75561078788953 10.988518377909221 6 -2 15
755 0 1 0 6.760882443441553 36.28351736750732 11.603088419117515 6 -2 15
989 0 1 0 8.89480301367874 34.999169616997186 11.650297467681309 6 -2 15
752 0 1 0 8.184136174982937 33.79469148628014 11.382013412343658 6 -2 15
751 0 1 0 6.7727129890535345 33.766118611144705 11.258813768388341 6 -2 15
750 0 1 0 6.110069778559135 34.96754424127409 11.389269719710997 6 -2 15
756 0 1 0 8.226901618900296 36.28292375030009 11.650250146189682 6 -2 15
985 0 1 0 8.919156448421365 32.54893656419885 11.296498591508715 6 -2 15
485 0 1 0 0.4298414289218142 20.106975548016493 10.77612653211764 6 -2 15
493 0 1 0 0.41246528010867983 25.050233881435663 10.592482363825983 6 -2 15
497 0 1 0 0.413984648701547 27.58893718846436 10.580329349868316 6 -2 15
489 0 1 0 0.39655616914469904 22.57991336935604 10.511017235645182 6 -2 15
501 0 1 0 0.4574052675700547 30.075598917936638 10.689230429848614 6 -2 15
505 0 1 0 0.3911670276772794 32.55910332522507 10.744329858890795 6 -2 15
509 0 1 0 0.4715181583415964 35.0547699923544 10.710953396082934 6 -2 15
757 0 1 0 4.668296278591206 39.93603407634193 11.577412949583973 6 -2 15
753 0 1 0 4.657777856717845 37.46515747865505 11.335337592827536 6 -2 15
520 0 1 0 3.964246583941107 38.741695799477355 11.34020759138634 6 -2 15
519 0 1 0 2.49530836811576 38.74317591950005 11.312316028159673 6 -2 15
514 0 1 0 1.8226530178272151 37.49134848483666 11.181850923933427 6 -2 15
518 0 1 0 1.78364168509644 39.9664911954302 11.408469097303852 6 -2 15
524 0 1 0 3.885366158819552 41.212262552743844 11.708764572570784 6 -2 15
523 0 1 0 2.4882110526610437 41.218845487394766 11.58783856834876 6 -2 15
758 0 1 0 6.130119938596749 39.98604968635873 11.617878641924401 6 -2 15
754 0 1 0 6.08064897548352 37.49696252295877 11.495813675948751 6 -2 15
759 0 1 0 6.774792722437548 38.75367982222764 11.608661176412216 6 -2 15
997 0 1 0 8.936247481382114 39.96774009882405 11.981411554032535 6 -2 15
993 0 1 0 8.94563665237591 37.56029568727721 11.696647832667985 6 -2 15
760 0 1 0 8.18637680046648 38.796973443899155 11.755175940194531 6 -2 15
763 0 1 0 6.785845881543353 41.18925454633737 11.914006085085212 6 -2 15
764 0 1 0 8.208018413525194 41.20748274217408 12.06518924521222 6 -2 15
779 0 1 0 6.738639537747852 51.058266406715596 12.219139977683755 6 -2 15
780 0 1 0 8.156595022507785 51.035862188051894 12.300472667911013 6 -2 15
761 0 1 0 4.620632902692677 42.44796379938793 11.753438803569452 6 -2 15
528 0 1 0 3.9169832038632566 43.67214619470344 11.827222666998022 6 -2 15
765 0 1 0 4.6210244555842275 44.854248098202746 12.014695817630207 6 -2 15
527 0 1 0 2.4978283656890596 43.641005980956656 11.766512871578978 6 -2 15
526 0 1 0 1.776848685893223 44.88983204035062 11.843786302750836 6 -2 15
522 0 1 0 1.7693417637895805 42.40558541415627 11.677553748047966 6 -2 15
762 0 1 0 6.042027217707276 42.428713263808916 11.884409822419993 6 -2 15
766 0 1 0 6.054142303754471 44.85429641282229 12.110511698538668 6 -2 15
767 0 1 0 6.725317702266195 43.65996173768955 12.08044167311634 6 -2 15
1001 0 1 0 8.847343751268077 42.43020567862704 12.270533970852327 6 -2 15
768 0 1 0 8.164454021177935 43.66207996213958 12.202765886522629 6 -2 15
1005 0 1 0 8.883335835577281 44.902907866500584 12.468518653014042 6 -2 15
1021 0 1 0 8.909884972914545 54.82706670354265 11.976569696054053 6 -2 15
782 0 1 0 6.033832822463084 54.74612536313861 12.01740844380657 6 -2 15
769 0 1 0 4.592904531780225 47.34484237964419 12.349458143252797 6 -2 15
532 0 1 0 3.910904474425429 46.10815019442706 12.124326450512328 6 -2 15
536 0 1 0 3.8791541605953657 48.59390906993999 12.310397675115366 6 -2 15
773 0 1 0 4.632971810480826 49.84834312368417 12.288613461480574 6 -2 15
535 0 1 0 2.477977015949921 48.59115600057461 12.256435802647013 6 -2 15
531 0 1 0 2.528827686130693 46.11190289607722 11.952622199537602 6 -2 15
534 0 1 0 1.8147275054591367 49.81707820306657 12.190449414914855 6 -2 15
530 0 1 0 1.8057246453483762 47.359244390344394 12.09475558775352 6 -2 15
770 0 1 0 6.0332793951719506 47.33929135018406 12.299561828380975 6 -2 15
774 0 1 0 6.008617859066527 49.868556604229354 12.393084728254157 6 -2 15
771 0 1 0 6.732266050034862 46.16015579885778 12.269879210284445 6 -2 15
775 0 1 0 6.707096632154599 48.569692023936945 12.356148947902378 6 -2 15
1013 0 1 0 8.832859699405246 49.84395591202357 12.443935279798138 6 -2 15
1009 0 1 0 8.85322617018733 47.37797718948027 12.53468312862478 6 -2 15
772 0 1 0 8.155137073755082 46.17373284658521 12.401332524099095 6 -2 15
776 0 1 0 8.128348899511733 48.62001720639901 12.424949491339829 6 -2 15
778 0 1 0 6.059822413475204 52.316998485454285 12.14008450343942 6 -2 15
544 0 1 0 3.907215086692127 53.556408032027456 12.139582091239554 6 -2 15
777 0 1 0 4.618281930734541 52.326090448904154 12.086240585569094 6 -2 15
540 0 1 0 3.9190525756593027 51.100969812853286 12.126202285239547 6 -2 15
539 0 1 0 2.502727305605391 51.12466841102361 12.19149562527214 6 -2 15
543 0 1 0 2.502885061006768 53.559394375443546 12.128352541079666 6 -2 15
542 0 1 0 1.77597371483018 54.815705986951585 12.053929697802053 6 -2 15
538 0 1 0 1.7535807852630423 52.331395653999664 12.057499550171933 6 -2 15
781 0 1 0 4.608636646225778 54.78306320907611 11.970313728408733 6 -2 15
783 0 1 0 6.74982839081833 53.54281347065714 12.066900276977561 6 -2 15
784 0 1 0 8.150130596929266 53.53036835232629 12.08980841578142 6 -2 15
1017 0 1 0 8.862537351285498 52.32285436180398 12.333029689100977 6 -2 15
537 0 1 0 0.3448070647278071 52.260279634742446 12.035430570815489 6 -2 15
541 0 1 0 0.35934056955442817 54.75676079899451 12.007613122624596 6 -2 15
517 0 1 0 0.3355678606683534 40.029880237365035 11.358429293897439 6 -2 15
521 0 1 0 0.33010377701874416 42.43579933330218 11.56730462900271 6 -2 15
529 0 1 0 0.38732553078193044 47.33040885276378 11.980189585966366 6 -2 15
533 0 1 0 0.3805936711472887 49.85195014388279 12.028578444698226 6 -2 15
513 0 1 0 0.41570070648156426 37.51817110052802 11.08330163795404 6 -2 15
525 0 1 0 0.3848895876743204 44.90252531360343 11.830437774755376 6 -2 15
559 0 1 0 2.4507824530545483 63.433241157366176 11.881207535012749 6 -2 15
554 0 1 0 1.8006859488943434 62.212046350324485 11.86551930432883 6 -2 15
785 0 1 0 4.574790507482486 57.24008717872494 11.941443065247896 6 -2 15
552 0 1 0 3.8719284799013893 58.53440486701059 11.904155896106131 6 -2 15
548 0 1 0 3.853701115583005 56.035641817587916 11.970461693278173 6 -2 15
547 0 1 0 2.479259513195396 56.068968188152276 11.97246623414001 6 -2 15
551 0 1 0 2.415886460178474 58.523018490161654 11.97599156632281 6 -2 15
546 0 1 0 1.7028645833802325 57.305484069621365 11.920005498020279 6 -2 15
789 0 1 0 4.623957879622871 59.74496362950291 11.913475595434694 6 -2 15
550 0 1 0 1.7073254307476535 59.77856299145452 11.839034471522245 6 -2 15
786 0 1 0 6.005847145342535 57.27956960112938 11.90853870546536 6 -2 15
791 0 1 0 6.7052778463472045 58.51223965129994 11.948707295755424 6 -2 15
787 0 1 0 6.7345353390029645 56.03522192930247 11.933403549085996 6 -2 15
1025 0 1 0 8.87403320274331 57.293059028932646 11.965030133828192 6 -2 15
792 0 1 0 8.15031416992687 58.4851907048062 11.8861712225084 6 -2 15
788 0 1 0 8.133988057586324 56.067323200250065 11.876863369341736 6 -2 15
810 0 1 0 6.061808550249976 72.07086000933782 11.594861722895253 6 -2 15
790 0 1 0 6.073259663109647 59.769306083752554 11.972009635651109 6 -2 15
1029 0 1 0 8.842162402130258 59.738341344897336 11.897304587231668 6 -2 15
811 0 1 0 6.71252307043978 70.82087885389251 11.550107310339502 6 -2 15
793 0 1 0 4.616021832609673 62.21890393269818 12.002676254281244 6 -2 15
560 0 1 0 3.911571708070964 63.4373748627916 11.926836647957426 6 -2 15
556 0 1 0 3.896919036160009 60.978194477738946 11.91276256858481 6 -2 15
555 0 1 0 2.4913023267549974 60.954879013520895 11.84161751533217 6 -2 15
794 0 1 0 6.052026256827668 62.23143946782673 11.989107579639366 6 -2 15
795 0 1 0 6.748988385342329 60.99467084799867 11.892532493531608 6 -2 15
799 0 1 0 6.704210421256523 63.47679138745783 12.01056499886951 6 -2 15
1033 0 1 0 8.827570294361903 62.243565969574995 11.962118843161484 6 -2 15
796 0 1 0 8.179367571493643 60.985499136292184 11.900370006550515 6 -2 15
815 0 1 0 6.827132859786676 73.2814706988568 11.578860007043394 6 -2 15
800 0 1 0 8.16027165043615 63.50694732329766 12.02203528188983 6 -2 15
563 0 1 0 2.4907382593984555 65.90692899421511 11.861993892125394 6 -2 15
801 0 1 0 4.644025183413889 67.1403694198206 11.78743053124863 6 -2 15
797 0 1 0 4.620260209256974 64.66296318094825 11.929818421907793 6 -2 15
564 0 1 0 3.913359764032417 65.90046748733701 11.903822352480427 6 -2 15
568 0 1 0 3.9184942224000188 68.4273626097757 11.587491157775956 6 -2 15
567 0 1 0 2.496459938831136 68.35689170614047 11.767118851155574 6 -2 15
558 0 1 0 1.7664678977661226 64.68177671853094 11.923398831602075 6 -2 15
562 0 1 0 1.758466008577673 67.15357046448271 11.876733120804642 6 -2 15
798 0 1 0 6.045187460124296 64.72229495439161 11.974696555444275 6 -2 15
802 0 1 0 6.067738469645464 67.16005436885304 11.842816086403715 6 -2 15
803 0 1 0 6.789448238030342 65.91611913351753 11.920054218558937 6 -2 15
807 0 1 0 6.718581528764396 68.39209721264214 11.716679878930211 6 -2 15
804 0 1 0 8.209689491503616 65.98170086880019 11.995409383213708 6 -2 15
1041 0 1 0 8.853625254579367 67.18675356417363 11.933952306686928 6 -2 15
1037 0 1 0 8.901276762474621 64.70324120123236 12.040449728934112 6 -2 15
816 0 1 0 8.235360896274562 73.30242425373562 11.56847561637186 6 -2 15
806 0 1 0 6.023260740561954 69.59591570874719 11.572028150555004 6 -2 15
808 0 1 0 8.148919615391442 68.3871966738192 11.813102180267686 6 -2 15
571 0 1 0 2.512333656539938 70.80931357910073 11.771361027873608 6 -2 15
572 0 1 0 3.8597914156358413 70.81331393181893 11.591403398011195 6 -2 15
809 0 1 0 4.615420535536382 72.06023763505546 11.586958875639242 6 -2 15
805 0 1 0 4.592011353338626 69.62679560268509 11.50250040871187 6 -2 15
566 0 1 0 1.7863952451415643 69.5757396533389 11.806763483474713 6 -2 15
570 0 1 0 1.8343655284637197 72.0227308461712 11.773288845358973 6 -2 15
575 0 1 0 2.578777466780034 73.27879069223428 11.718791990612534 6 -2 15
576 0 1 0 3.976546065303317 73.28880232970161 11.706503637062708 6 -2 15
812 0 1 0 8.173457591602839 70.80325256170919 11.47881520532205 6 -2 15
1049 0 1 0 8.911513852004262 72.05339166111017 11.472836612163198 6 -2 15
1045 0 1 0 8.953194541941617 69.59924044094434 11.727638540011501 6 -2 15
549 0 1 0 0.30825439712640734 59.73027242376416 11.864724202332733 6 -2 15
545 0 1 0 0.295756092359689 57.24610347500268 11.900520622136778 6 -2 15
553 0 1 0 0.37600598128778157 62.222635740379445 11.870642207665302 6 -2 15
561 0 1 0 0.3811446098499999 67.14203155785397 12.037209356885047 6 -2 15
565 0 1 0 0.38627417350011706 69.6131354189196 12.035434986488807 6 -2 15
557 0 1 0 0.35113552962733174 64.68215547640841 12.016325277537481 6 -2 15
569 0 1 0 0.38436718188724694 72.03219530547229 11.951492839001274 6 -2 15
579 0 1 0 2.544797507503621 75.76703116873678 11.778593128045861 6 -2 15
817 0 1 0 4.697858453213116 77.06157006516557 11.71583746165155 6 -2 15
813 0 1 0 4.665261202260657 74.54395400001275 11.772184244079797 6 -2 15
580 0 1 0 3.947085804163472 75.7714302377248 11.770000741792046 6 -2 15
574 0 1 0 1.8676313669373577 74.5268805092838 11.779374112931448 6 -2 15
578 0 1 0 1.798510789619915 76.95740528872231 11.682980579153503 6 -2 15
818 0 1 0 6.087584260662003 77.06173635889232 11.603396888371172 6 -2 15
814 0 1 0 6.093220137508313 74.57083168515064 11.628682321664398 6 -2 15
819 0 1 0 6.781938090239869 75.79874072524726 11.561331479462758 6 -2 15
820 0 1 0 8.170431993636711 75.79076517085358 11.610474515284249 6 -2 15
1053 0 1 0 8.897424745874906 74.58664623652697 11.592765604292632 6 -2 15
1057 0 1 0 8.916749997264162 77.02527897630335 11.577321271253279 6 -2 15
823 0 1 0 6.826869500953965 78.26743868483285 11.539410398442552 6 -2 15
824 0 1 0 8.271626240228159 78.24468607547901 11.53044561702234 6 -2 15
583 0 1 0 2.528439389620536 78.27099528888132 11.744753593523221 6 -2 15
821 0 1 0 4.694784201432972 79.45939688147608 11.638260186803166 6 -2 15
825 0 1 0 4.680239941793487 81.99556030284856 11.985871889182079 6 -2 15
588 0 1 0 3.9666053403358847 80.72124295016576 11.797080584154466 6 -2 15
584 0 1 0 3.9438548906179123 78.25458874917462 11.660293988303456 6 -2 15
587 0 1 0 2.527301748293085 80.68075287437235 11.981047585480654 6 -2 15
582 0 1 0 1.8227091834528288 79.52548266081314 11.852314417271897 6 -2 15
586 0 1 0 1.8388802580159844 81.90637842721998 12.257982150921098 6 -2 15
822 0 1 0 6.127967666974604 79.48572800130049 11.615781630540113 6 -2 15
826 0 1 0 6.123564307460983 82.0055294176886 11.8535304001387 6 -2 15
827 0 1 0 6.780596934779733 80.75312716235891 11.695894024262735 6 -2 15
1061 0 1 0 8.980432828237316 79.47544709743649 11.561615220445535 6 -2 15
828 0 1 0 8.24135260888068 80.73418683122284 11.650954197719873 6 -2 15
1065 0 1 0 8.94893722116132 81.93860599983478 11.656436465986681 6 -2 15
596 0 1 0 4.014912930083075 85.6581951300509 12.76602309148604 6 -2 15
592 0 1 0 3.993509419997572 83.19857464332738 12.222084610649802 6 -2 15
829 0 1 0 4.711016478833028 84.44504136861845 12.365982443471069 6 -2 15
833 0 1 0 4.733732498628623 86.88386783676891 12.92346102611921 6 -2 15
595 0 1 0 2.565487977742725 85.63162229246241 12.81316373375918 6 -2 15
591 0 1 0 2.563697194726219 83.1880951368877 12.350137056245849 6 -2 15
590 0 1 0 1.8496490577641669 84.3799368309622 12.601994374292998 6 -2 15
594 0 1 0 1.9160156122582719 86.85879075745811 13.108038486755552 6 -2 15
830 0 1 0 6.1541209597489885 84.42050639582493 12.362303296041103 6 -2 15
834 0 1 0 6.186954923868834 86.90284351510044 12.911223314593562 6 -2 15
835 0 1 0 6.833618697688155 85.61931953246993 12.706450675430645 6 -2 15
831 0 1 0 6.842199514581149 83.21298231466461 12.017744435443953 6 -2 15
836 0 1 0 8.277039207425535 85.59260158773309 12.587126255901495 6 -2 15
1069 0 1 0 8.962940605805832 84.3995776904308 12.24621438667924 6 -2 15
832 0 1 0 8.257457401099398 83.18564906104972 11.98881390448212 6 -2 15
1073 0 1 0 8.980777854888546 86.8663042986272 12.577439649259148 6 -2 15
598 0 1 0 1.91536060608502 89.29589834568279 13.389744333220335 6 -2 15
841 0 1 0 4.786897884240387 91.78820117786528 13.57541041412871 6 -2 15
599 0 1 0 2.6212913204340853 88.0983528041916 13.15321400670266 6 -2 15
602 0 1 0 1.9759666447314135 91.7127202853116 13.825010984407838 6 -2 15
600 0 1 0 4.015238437565241 88.09937529381403 13.202728076433457 6 -2 15
837 0 1 0 4.77813190843619 89.30816475623477 13.243746956901756 6 -2 15
604 0 1 0 4.068478599513388 90.55205479038136 13.397775229771636 6 -2 15
603 0 1 0 2.6472976620631035 90.53101472368725 13.59387984671569 6 -2 15
842 0 1 0 6.1736670048532885 91.7811967423869 13.362550894106162 6 -2 15
843 0 1 0 6.884315562270995 90.58670521007754 13.163956072024872 6 -2 15
1081 0 1 0 9.033681885968198 91.8036348095983 12.977710623502684 6 -2 15
839 0 1 0 6.864720168949665 88.11307272542948 12.944110810545514 6 -2 15
840 0 1 0 8.28468543435492 88.08211714143441 12.753371503909221 6 -2 15
844 0 1 0 8.242289065278934 90.58621498933795 12.884837010347585 6 -2 15
1077 0 1 0 8.97177523740519 89.35863196681058 12.743941814482376 6 -2 15
838 0 1 0 6.177882347730211 89.32614185936824 13.116137089616846 6 -2 15
597 0 1 0 0.45339743588291964 89.34703920376283 13.522397967197172 6 -2 15
581 0 1 0 0.40444609104744506 79.5034934705327 11.899997589623046 6 -2 15
593 0 1 0 0.48736262602180846 86.83239804314165 13.25187493841242 6 -2 15
601 0 1 0 0.5552446727928191 91.72082219874882 13.93980396741785 6 -2 15
585 0 1 0 0.40966845354171333 81.91501174498711 12.405504132937937 6 -2 15
589 0 1 0 0.4367859802365198 84.37124741796104 12.76517475661406 6 -2 15
577 0 1 0 0.393643349215153 77.00567169721934 11.763959078390988 6 -2 15
573 0 1 0 0.408473193729087 74.53172670082381 11.743315587742185 6 -2 15
608 0 1 0 4.117558522530441 93.0304568566485 13.771620592788372 6 -2 15
607 0 1 0 2.6976314873896543 92.99976034083757 13.933773442132411 6 -2 15
845 0 1 0 4.813419084131004 94.22857318652781 13.973621090393891 6 -2 15
606 0 1 0 1.971235157290463 94.23567028628936 14.182927764468 6 -2 15
612 0 1 0 4.148058935089337 95.4134961767271 14.256984407044468 6 -2 15
611 0 1 0 2.7329175397842214 95.42145480310951 14.318011548581081 6 -2 15
610 0 1 0 2.04863728843877 96.64602561729097 14.50966556826903 6 -2 15
849 0 1 0 4.910685906891193 96.60129233043493 14.45292055701005 6 -2 15
847 0 1 0 6.92877433458936 92.97152982663505 13.484702416827796 6 -2 15
848 0 1 0 8.322709935861248 93.03477250903465 13.298476586067062 6 -2 15
1085 0 1 0 9.059784816094979 94.2294971853752 13.39780646198853 6 -2 15
846 0 1 0 6.258195732139311 94.17821943060062 13.812692705696676 6 -2 15
851 0 1 0 6.944953920847276 95.36501151112296 14.024282410935228 6 -2 15
852 0 1 0 8.361866454495898 95.43831184785574 13.81653111974133 6 -2 15
850 0 1 0 6.300619255024957 96.56302719196702 14.366836605981042 6 -2 15
1089 0 1 0 9.112196414259436 96.60286587310858 14.002656680672775 6 -2 15
614 0 1 0 2.125918538937547 99.08598349102708 14.70734138437827 6 -2 15
853 0 1 0 4.960204690087963 99.0878629696436 14.490156126785322 6 -2 15
616 0 1 0 4.2347574207464085 97.85595926528671 14.4841997475534 6 -2 15
620 0 1 0 4.267419812358624 100.32476562791454 14.569230605657266 6 -2 15
619 0 1 0 2.8529383147177065 100.32177754442506 14.732907310119595 6 -2 15
615 0 1 0 2.7716203310931675 97.88290669256926 14.537026106447739 6 -2 15
854 0 1 0 6.383439847306327 99.06062683669667 14.442648026456837 6 -2 15
855 0 1 0 7.076570485519778 97.78677856438756 14.487762430558947 6 -2 15
859 0 1 0 7.090533034882609 100.31211187667724 14.530859993238094 6 -2 15
856 0 1 0 8.482558469088318 97.81572741615012 14.312483252830479 6 -2 15
1093 0 1 0 9.248692477840962 98.99618247761289 14.568569750572644 6 -2 15
860 0 1 0 8.520005986730842 100.2070504494156 14.691595531728536 6 -2 15
857 0 1 0 4.965563282122661 101.55845486064123 14.674043478954928 6 -2 15
861 0 1 0 5.015035819951738 104.00685634275189 15.02277866334443 6 -2 15
624 0 1 0 4.260921245230618 102.81901561030526 14.936736669960418 6 -2 15
628 0 1 0 4.310664024762692 105.19264411718369 15.380941777758881 6 -2 15
627 0 1 0 2.878923409046122 105.2186110149524 15.493619730760745 6 -2 15
623 0 1 0 2.8301028975071785 102.80959743342044 15.017182662875134 6 -2 15
622 0 1 0 2.088896670226254 104.02613716212585 15.316325177001762 6 -2 15
618 0 1 0 2.1343913425850585 101.58262470569979 14.836482506795333 6 -2 15
862 0 1 0 6.4536166579053855 103.98502078670629 14.96552837924426 6 -2 15
858 0 1 0 6.416944748090836 101.56101662566064 14.685442147981684 6 -2 15
863 0 1 0 7.151042531790597 102.73350040547962 14.857419466449183 6 -2 15
867 0 1 0 7.181048687425281 105.16333960920856 15.202418089258797 6 -2 15
864 0 1 0 8.551909829752686 102.67260276028402 15.028284416870742 6 -2 15
1101 0 1 0 9.296728553886263 103.92527842044443 15.132756967531419 6 -2 15
1097 0 1 0 9.268753176712812 101.4409124715556 14.943011187488443 6 -2 15
868 0 1 0 8.6127071953585 105.14638359779927 15.142267912082234 6 -2 15
626 0 1 0 2.19987094614744 106.44059524587543 15.782820474657353 6 -2 15
635 0 1 0 2.935106120223329 110.10138261121472 15.982548854448721 6 -2 15
630 0 1 0 2.2580194756415906 108.92224224710564 15.988922613540593 6 -2 15
865 0 1 0 5.061065138390662 106.4171567026687 15.432352948331259 6 -2 15
632 0 1 0 4.340997113115218 107.6670929090976 15.582825870493998 6 -2 15
869 0 1 0 5.0811900061911395 108.91254470052007 15.576537607744632 6 -2 15
631 0 1 0 2.917963643528115 107.67762062070665 15.73562588143781 6 -2 15
636 0 1 0 4.344205775683466 110.17672275215115 15.77078552409624 6 -2 15
875 0 1 0 7.283970250937323 110.16803175541406 15.67275581258303 6 -2 15
1105 0 1 0 9.27989435169358 106.36883192190012 15.28810261970991 6 -2 15
871 0 1 0 7.177787685247653 107.66860261736369 15.447269400785615 6 -2 15
1109 0 1 0 9.364683422975858 108.81841929345079 15.597502968548394 6 -2 15
872 0 1 0 8.651328338706579 107.62543688466785 15.506257997099265 6 -2 15
866 0 1 0 6.465362552303346 106.41387065975265 15.320410125636238 6 -2 15
870 0 1 0 6.495317907749709 108.94100287990537 15.53250395401645 6 -2 15
876 0 1 0 8.663673891607152 110.054341789144 15.713021760447683 6 -2 15
629 0 1 0 0.853838044601145 108.86553764268794 16.15629160394884 6 -2 15
625 0 1 0 0.7359306256589968 106.432329831116 15.843021121740088 6 -2 15
621 0 1 0 0.6596903369646517 104.04578141981845 15.351109655393568 6 -2 15
609 0 1 0 0.6236740108123479 96.60055238972329 14.595478018907038 6 -2 15
613 0 1 0 0.7284480527249024 99.08306674843477 14.771755222074615 6 -2 15
617 0 1 0 0.6379216242854193 101.5943686002111 14.925071548572529 6 -2 15
605 0 1 0 0.5882996043204806 94.15993931645728 14.212032408038434 6 -2 15