LAMMPS data file via write_data, version 4 Feb 2025, timestep = 80000, units = metal

11640 atoms
3 atom types

0 153.62297999999998 xlo xhi
0 147.8237814278542 ylo yhi
0 151.07316997686289 zlo zhi

Masses

1 12.01099999691024
2 1.007999999740698
3 15.99899999588435

Atoms # full

3846 0 1 0 2.2865299935624517 3.1168903875641556 21.31076644673743 1 0 1
3851 0 1 0 3.0264881604553606 4.396903570590034 21.185449166734145 1 0 1
3852 0 1 0 4.448308412323423 4.427985644382431 21.213605096155543 1 0 1
3842 0 1 0 2.329037680138119 0.6526312641198687 21.391702285983058 1 0 1
3847 0 1 0 3.0355545914153605 1.9106203660764056 21.427782360341883 1 0 1
4081 0 1 0 5.245414838790915 0.6254204327544081 21.498702024755907 1 0 1
4085 0 1 0 5.192267336528786 3.145424177438584 21.348452015091404 1 0 1
3848 0 1 0 4.4669794809094885 1.8778007740577958 21.453948006815896 1 0 1
4086 0 1 0 6.596513445337743 3.1284760600392514 21.425905801386996 1 0 1
3854 0 1 0 2.3024707883245794 8.062747777984665 21.165707321471334 1 0 1
3850 0 1 0 2.307482746733243 5.623568041279438 21.156879198159647 1 0 1
3855 0 1 0 3.0160943946845724 6.8817882294151715 21.130733553144196 1 0 1
3859 0 1 0 3.0089732649047685 9.29729669600411 21.222431040800764 1 0 1
3856 0 1 0 4.454236050725098 6.861099037293565 21.130510647704213 1 0 1
4093 0 1 0 5.177021600366038 8.083302907754975 21.28441553058195 1 0 1
4089 0 1 0 5.185006828096001 5.591533884107781 21.13385919683694 1 0 1
4094 0 1 0 6.614413072806304 8.14466695352703 21.188452155776737 1 0 1
4090 0 1 0 6.603087211702482 5.577073517865643 21.265614447491906 1 0 1
4095 0 1 0 7.333030984468579 6.876583462432223 21.269764626638747 1 0 1
4108 0 1 0 8.718086086837388 14.271354222621047 21.260682246803302 1 0 1
3863 0 1 0 2.9843735813791414 11.794640390801492 21.230339100959966 1 0 1
3858 0 1 0 2.259546650939498 10.57040936717743 21.225420333970973 1 0 1
3862 0 1 0 2.2393881557336894 13.006272739424073 21.05812203427525 1 0 1
3860 0 1 0 4.464794123229889 9.339748791983828 21.288512599588966 1 0 1
4097 0 1 0 5.127060342869061 10.586692396951312 21.38357892791739 1 0 1
3864 0 1 0 4.443490433159915 11.783885088772257 21.325827628840095 1 0 1
4101 0 1 0 5.164072018898788 13.07430910666492 21.32563939599933 1 0 1
4341 0 1 0 9.360310167762837 12.991298226234338 21.297150991349767 1 0 1
4099 0 1 0 7.306393871380499 9.351408086221047 21.328855504126427 1 0 1
4102 0 1 0 6.578317648901472 13.092499487510812 21.414957857445017 1 0 1
4104 0 1 0 8.651220726183237 11.728769628261235 21.2517622654033 1 0 1
4098 0 1 0 6.569101940809087 10.598360384540188 21.33011969893387 1 0 1
4103 0 1 0 7.225048075760927 11.794538661236269 21.35261890097011 1 0 1
4100 0 1 0 8.711702608017408 9.300487523546993 21.259903540768782 1 0 1
3870 0 1 0 2.3103826092322834 18.019749093487118 21.04282431101077 1 0 1
4109 0 1 0 5.121558455148581 17.987859054363955 21.418773218911472 1 0 1
3871 0 1 0 2.9803627760711144 16.78249178655233 21.125262447518168 1 0 1
3866 0 1 0 2.297873159346034 15.495944527669776 21.084544625292043 1 0 1
3872 0 1 0 4.384049292762096 16.75803148197128 21.297850640860094 1 0 1
4105 0 1 0 5.12177341431653 15.492453433334427 21.38409974480998 1 0 1
3867 0 1 0 2.980745242460272 14.254682418863768 21.08538793484164 1 0 1
3868 0 1 0 4.437912192546004 14.248293617918959 21.258536918705868 1 0 1
4110 0 1 0 6.5791787781245255 17.986450949228352 21.428930889552486 1 0 1
4111 0 1 0 7.294052316007036 16.766559530303553 21.51420013262598 1 0 1
4106 0 1 0 6.573567597690636 15.545239220973043 21.46574875492393 1 0 1
4349 0 1 0 9.414609435077754 18.001675576327465 21.523920208925006 1 0 1
4112 0 1 0 8.738860473617805 16.777434047626297 21.521414331559647 1 0 1
4345 0 1 0 9.444842861742782 15.5557729296656 21.3408679533824 1 0 1
4107 0 1 0 7.299430848564799 14.309232928477233 21.4428010445208 1 0 1
4091 0 1 0 7.322204128610583 4.339456562048992 21.406401645041733 1 0 1
4337 0 1 0 9.444576548987612 10.516399172167237 21.245326713134776 1 0 1
4082 0 1 0 6.6643100938805535 0.661799411896102 21.54452962044888 1 0 1
4321 0 1 0 9.488795593468733 0.6259459857761831 21.67921904216836 1 0 1
4087 0 1 0 7.342454388955365 1.884796428021972 21.556260637426114 1 0 1
4333 0 1 0 9.450462080566156 8.050949015016363 21.400927208367793 1 0 1
4092 0 1 0 8.737709677199673 4.322579167544458 21.46652124821949 1 0 1
4088 0 1 0 8.755512938063404 1.888291279982226 21.563317903290663 1 0 1
4329 0 1 0 9.492692933068916 5.566592025778898 21.498246079354207 1 0 1
4096 0 1 0 8.784824145531715 6.837833850768596 21.419725515616733 1 0 1
4325 0 1 0 9.441857036241263 3.109901496481971 21.4527946391895 1 0 1
3865 0 1 0 0.8022509737002164 15.510330430953768 21.084830393174652 1 0 1
3861 0 1 0 0.8478474719132587 13.028238454914362 21.079892374534715 1 0 1
3857 0 1 0 0.7805025222966264 10.563167400330471 21.152970071480897 1 0 1
3869 0 1 0 0.8934999104798255 18.030643416162718 21.100511509436906 1 0 1
3853 0 1 0 0.8594986757089408 8.096734574139408 21.147612611356823 1 0 1
3841 0 1 0 0.9171930156631 0.6787062561075882 21.368045286622554 1 0 1
3849 0 1 0 0.8975376504834043 5.6383071966666 21.236508552609546 1 0 1
3845 0 1 0 0.8504539197698734 3.12633930250504 21.22512807269342 1 0 1
3616 0 1 0 0.12554429035342554 6.840386320401086 21.19974774382415 1 0 1
3612 0 1 0 0.19680070240442055 4.344454487484458 21.27454668698959 1 0 1
3628 0 1 0 0.17184729323776907 14.24092762245154 21.028825686460383 1 0 1
3620 0 1 0 0.1343722527959543 9.289026654398645 21.130969267910494 1 0 1
3624 0 1 0 0.11359841986124714 11.7687546142831 20.959393246391592 1 0 1
3632 0 1 0 0.16987598276774687 16.772118699762164 21.03088581165909 1 0 1
3608 0 1 0 0.18731896549894128 1.8665533842704487 21.223373664823907 1 0 1
4113 0 1 0 5.166352696092651 20.43629311475308 21.4714126998376 1 0 1
3875 0 1 0 2.992918773887485 19.23373044800672 21.151093306593914 1 0 1
3874 0 1 0 2.2822584311653413 20.479444445821443 21.332264879409376 1 0 1
3876 0 1 0 4.43528511942833 19.23188733273601 21.29143717657713 1 0 1
4117 0 1 0 5.1540008746928 22.919172244644635 21.581555644756193 1 0 1
3880 0 1 0 4.448118557178138 21.683220615233775 21.53048616877269 1 0 1
3878 0 1 0 2.287387347891702 22.94229867473055 21.66967216863495 1 0 1
3879 0 1 0 3.0092951538827846 21.697775720520912 21.477674115668453 1 0 1
4115 0 1 0 7.274119333351688 19.17874870287692 21.450902419847854 1 0 1
4357 0 1 0 9.428563061917773 22.933252023327622 21.552758663282436 1 0 1
4116 0 1 0 8.683863039772316 19.230268659919215 21.499448284609016 1 0 1
4114 0 1 0 6.583391239882661 20.41254411805677 21.36782517788244 1 0 1
4118 0 1 0 6.612618048617989 22.88821569394559 21.536591768298152 1 0 1
4120 0 1 0 8.699622874737834 21.696441898359748 21.465310537712245 1 0 1
4353 0 1 0 9.409227515441515 20.44618413709751 21.391443477642582 1 0 1
4119 0 1 0 7.282295444328074 21.645548346722492 21.48989131315571 1 0 1
3887 0 1 0 2.9694851131269653 26.590151961788955 22.047471441060964 1 0 1
3888 0 1 0 4.406289072967112 26.62539371098082 22.02085539886042 1 0 1
4121 0 1 0 5.11769724521775 25.390637818669525 21.812275310177363 1 0 1
3884 0 1 0 4.410045283150657 24.142186239440154 21.639277498204198 1 0 1
3883 0 1 0 3.0117042158371894 24.202499504819016 21.711270175853375 1 0 1
3882 0 1 0 2.2549601301549336 25.350138984334055 21.929704529087942 1 0 1
4124 0 1 0 8.723717655462469 24.133718644101005 21.748855341111227 1 0 1
4128 0 1 0 8.717429099965974 26.506147472210568 22.016379182578962 1 0 1
4127 0 1 0 7.270126121134952 26.539251171539064 22.044500230125788 1 0 1
4361 0 1 0 9.45848438509751 25.32596663882771 21.797088121432495 1 0 1
4123 0 1 0 7.320583707870101 24.08982841790219 21.69189116503845 1 0 1
4122 0 1 0 6.538991783845267 25.341352987286328 21.81496428606395 1 0 1
3892 0 1 0 4.389149977284501 29.03616146544694 22.52060958436992 1 0 1
3890 0 1 0 2.275514175231569 30.28886490888674 22.662123200867743 1 0 1
3895 0 1 0 2.9527702589656992 31.466584943107968 23.030242122392664 1 0 1
3891 0 1 0 2.975212593186569 29.043181193425276 22.49023700642865 1 0 1
4129 0 1 0 5.097921198255062 30.241788403741015 22.81520697060911 1 0 1
3896 0 1 0 4.376092593759994 31.449835467436607 23.06996298823808 1 0 1
4125 0 1 0 5.112584243575162 27.860104241550353 22.166619262935967 1 0 1
3886 0 1 0 2.2733306781685396 27.829485603320048 22.18319061615372 1 0 1
4365 0 1 0 9.411976604604993 27.768131936140573 22.253448226021554 1 0 1
4130 0 1 0 6.534304301343444 30.220332546001977 22.8497137437135 1 0 1
4132 0 1 0 8.687867885781884 29.01631545201341 22.519307264584555 1 0 1
4135 0 1 0 7.274603363122959 31.467065327253962 23.092415307486014 1 0 1
4136 0 1 0 8.70853476390305 31.40940116335448 23.13131477815666 1 0 1
4369 0 1 0 9.397032382436583 30.213164410975473 22.826563058906988 1 0 1
4131 0 1 0 7.284630408015422 29.006228827510668 22.54669279996856 1 0 1
4126 0 1 0 6.563454569273439 27.780614742361617 22.235694596070232 1 0 1
3904 0 1 0 4.369280683721274 36.312537657702975 24.037617318434496 1 0 1
4137 0 1 0 5.100414197394208 35.09479981737145 23.84958312406772 1 0 1
3903 0 1 0 2.9758890746183986 36.3190382109973 23.925933431090446 1 0 1
3900 0 1 0 4.3727809589608215 33.85662757478204 23.560364149256365 1 0 1
4133 0 1 0 5.1214055753643395 32.63465166790588 23.3671213194449 1 0 1
3898 0 1 0 2.2623606990700673 35.1049521332139 23.62342814376283 1 0 1
3899 0 1 0 2.9944944196798553 33.87299109418506 23.508120197405354 1 0 1
3894 0 1 0 2.232987842421797 32.69659980435033 23.190366672994685 1 0 1
4138 0 1 0 6.566783993113153 35.07220655987026 23.78152862931674 1 0 1
4134 0 1 0 6.553573324892286 32.65917389336021 23.319110487937504 1 0 1
4143 0 1 0 7.27292117740126 36.30537820528026 23.9510639935143 1 0 1
4377 0 1 0 9.463681013177933 35.09480324033826 23.64222936327667 1 0 1
4144 0 1 0 8.709153835715238 36.314305963633345 23.851788481911157 1 0 1
4140 0 1 0 8.727774947332467 33.90864843661197 23.462688819509637 1 0 1
4373 0 1 0 9.430280656434894 32.62718471628868 23.420606500938877 1 0 1
4139 0 1 0 7.29113734297112 33.88202411470998 23.535981117369015 1 0 1
3877 0 1 0 0.8966327215829261 22.891448609628384 21.64158801654422 1 0 1
3873 0 1 0 0.843951606426197 20.450201840445626 21.332489245646812 1 0 1
3897 0 1 0 0.8415300996106263 35.106262439865944 23.544225222280826 1 0 1
3893 0 1 0 0.8320503740939843 32.68054161488733 23.127101544585507 1 0 1
3885 0 1 0 0.8535410204012374 27.859717895718386 22.255248083430185 1 0 1
3889 0 1 0 0.838209118419375 30.280786906015994 22.679196261709162 1 0 1
3881 0 1 0 0.8105356445451914 25.337107723060818 21.923105940421564 1 0 1
3636 0 1 0 0.13616302452215734 19.241848873076176 21.19035817987956 1 0 1
3644 0 1 0 0.13501139536398069 24.115991099582565 21.785098224071632 1 0 1
3640 0 1 0 0.1270753576665077 21.693802097452938 21.568524294964973 1 0 1
3648 0 1 0 0.12616216219693208 26.63744783041378 22.015638046691556 1 0 1
3656 0 1 0 0.13186257997597253 31.465660394413376 22.86797573786416 1 0 1
3652 0 1 0 0.12048123329601246 29.06168276839844 22.44026411441323 1 0 1
3664 0 1 0 0.1197274023526878 36.366592399522595 23.752298300821476 1 0 1
3660 0 1 0 0.13121967438261134 33.88027561251818 23.356352150805375 1 0 1
3912 0 1 0 4.280816924151457 41.21708480691563 24.785234439016847 1 0 1
4145 0 1 0 5.026486511518787 40.04709547927687 24.514519782284363 1 0 1
3911 0 1 0 2.8703481838684413 41.22542355030295 24.786351125111807 1 0 1
3908 0 1 0 4.3471692882218305 38.8060121922424 24.284787959687456 1 0 1
4141 0 1 0 5.06299079882194 37.578070452710364 24.179252844121088 1 0 1
3907 0 1 0 2.9241710243354455 38.79375401969762 24.294573551411226 1 0 1
3902 0 1 0 2.2923379526554637 37.596094339931796 24.068096419244355 1 0 1
3906 0 1 0 2.1873075264322246 40.00652750877971 24.475533782839324 1 0 1
4146 0 1 0 6.473507991337374 40.013494546256 24.41307184555203 1 0 1
4142 0 1 0 6.482737305063251 37.57036120145799 24.107509892203208 1 0 1
4152 0 1 0 8.648808613378353 41.20556165807923 24.617117163669175 1 0 1
4151 0 1 0 7.192200832220859 41.23285037769809 24.636164624294878 1 0 1
4385 0 1 0 9.380760581916956 39.99758449125361 24.41703104760502 1 0 1
4147 0 1 0 7.168484844762327 38.793147800415625 24.185208811360923 1 0 1
4148 0 1 0 8.653185704486585 38.767805714867656 24.187990964310412 1 0 1
4381 0 1 0 9.41720075603403 37.54189676050533 24.066620322411346 1 0 1
3920 0 1 0 4.35104070738364 46.11269985657465 25.588510253202365 1 0 1
4153 0 1 0 5.064938055719461 44.85155699723679 25.465538785268226 1 0 1
3919 0 1 0 2.9059650218181337 46.091709941086584 25.623207946971714 1 0 1
4149 0 1 0 5.034116517181774 42.41734578878518 25.056584073702915 1 0 1
3916 0 1 0 4.3254810088864915 43.62478549406533 25.285689943552946 1 0 1
3915 0 1 0 2.9377346954849064 43.63321199392801 25.138722802355876 1 0 1
3910 0 1 0 2.191454050640256 42.44889076012228 24.890383496489193 1 0 1
3914 0 1 0 2.2090241320049753 44.93572815494885 25.283755172460953 1 0 1
4154 0 1 0 6.444917253849188 44.85570959765521 25.337346543047516 1 0 1
4150 0 1 0 6.471550000767777 42.40457517740007 24.989083529906818 1 0 1
4393 0 1 0 9.336502759554765 44.85485016877699 25.377576054090284 1 0 1
4160 0 1 0 8.61767963926093 46.07633936737348 25.589617087819406 1 0 1
4155 0 1 0 7.171298595495416 43.649121662883445 25.186914875912056 1 0 1
4156 0 1 0 8.602367268906471 43.63805594850444 25.166206116916776 1 0 1
4389 0 1 0 9.312128623737404 42.42657706585934 24.92765612372762 1 0 1
4159 0 1 0 7.223263074069656 46.08219304981285 25.596819649403827 1 0 1
3918 0 1 0 2.166670772020258 47.26598370807494 25.763675588218653 1 0 1
4161 0 1 0 5.082584032511673 49.72395254947613 26.06306134686466 1 0 1
3924 0 1 0 4.324065544690661 48.521857841339624 25.959967603356933 1 0 1
3923 0 1 0 2.8752462151138634 48.510570852930954 26.00275177419456 1 0 1
4157 0 1 0 5.064958342824245 47.305691173374434 25.73608418531552 1 0 1
3922 0 1 0 2.1832424983398444 49.783695166765035 25.900271466076973 1 0 1
4162 0 1 0 6.517306044642587 49.79199924148317 26.04116203138778 1 0 1
4158 0 1 0 6.479842733470234 47.30328319259884 25.763769650810637 1 0 1
4401 0 1 0 9.358084919224076 49.76477612031441 26.14715915470639 1 0 1
4163 0 1 0 7.202329866539538 48.596345034377485 25.88972429151732 1 0 1
4164 0 1 0 8.625817487943664 48.54460892080167 25.939996625131116 1 0 1
4397 0 1 0 9.345074242242935 47.32919002009265 25.759125426290154 1 0 1
3928 0 1 0 4.355121783711199 50.9402478645797 26.103341349155002 1 0 1
3927 0 1 0 2.9286517577683195 50.99980128253574 26.0390382808172 1 0 1
3926 0 1 0 2.1618356545883346 52.23371672750724 26.043683747257983 1 0 1
3930 0 1 0 2.183126699867879 54.70215116025982 26.041574123484075 1 0 1
4169 0 1 0 4.97101109069261 54.71447283367949 26.254275372116403 1 0 1
3932 0 1 0 4.282384033018489 53.50630689194613 26.237977644858926 1 0 1
4165 0 1 0 5.039977243883987 52.232542965774215 26.33432629824439 1 0 1
3931 0 1 0 2.851945286165511 53.477070464027456 26.128176836012877 1 0 1
4409 0 1 0 9.309010536754068 54.72190679925259 26.47542178039256 1 0 1
4167 0 1 0 7.22747406777732 51.05259718108247 26.318259929667132 1 0 1
4405 0 1 0 9.340826205625287 52.246212570263026 26.477749295173776 1 0 1
4172 0 1 0 8.58678813719819 53.471710673502876 26.435090914120046 1 0 1
4170 0 1 0 6.42837707185161 54.714398437231324 26.359598277158813 1 0 1
4166 0 1 0 6.4693639227962985 52.27545271424657 26.37968793653634 1 0 1
4171 0 1 0 7.1522590598175295 53.48832332185744 26.447983629984023 1 0 1
4168 0 1 0 8.645267044656233 50.99104744486644 26.320219997523836 1 0 1
3905 0 1 0 0.8096081595843067 39.99503199853953 24.464269806236008 1 0 1
3901 0 1 0 0.8343177723889548 37.60193753466601 24.032469278805777 1 0 1
3909 0 1 0 0.7694176050597459 42.46253072119809 24.780810884780482 1 0 1
3913 0 1 0 0.7652315838608356 44.8788922369132 25.168496719329347 1 0 1
3921 0 1 0 0.7378341007512031 49.826967886989365 25.707372814604145 1 0 1
3917 0 1 0 0.7308186718843439 47.30589184344684 25.628983790214903 1 0 1
3929 0 1 0 0.7639156928737425 54.74322945379899 25.92707024103546 1 0 1
3925 0 1 0 0.736918508553311 52.25558605488137 25.821708775200463 1 0 1
3672 0 1 0 0.10273397491130673 41.23942833286067 24.547199343797487 1 0 1
3668 0 1 0 0.08251337003309724 38.78825772158057 24.210771650930262 1 0 1
3676 0 1 0 0.041061507814612194 43.6218171713843 24.88668571431743 1 0 1
3688 0 1 0 0.054105034539138654 51.04821072655662 25.76047991020988 1 0 1
3692 0 1 0 0.03043034781901301 53.50517758580461 25.706420033818368 1 0 1
3680 0 1 0 0.023010968324834857 46.03593434142073 25.44763855299643 1 0 1
3684 0 1 0 0.014657866240293891 48.556876000466374 25.59590457306378 1 0 1
4177 0 1 0 5.0063069445890305 59.6763566800475 26.51312561829182 1 0 1
3940 0 1 0 4.296777283164062 58.43144245205373 26.338207321386978 1 0 1
4173 0 1 0 4.994139582367761 57.18202481710608 26.267115854808292 1 0 1
3936 0 1 0 4.294213853888435 55.979255420583726 26.24025625276045 1 0 1
3939 0 1 0 2.8496084027346162 58.46505190795032 26.29445584555649 1 0 1
3935 0 1 0 2.9149666038322697 55.97768882558025 26.077724814090157 1 0 1
3938 0 1 0 2.1233732143707047 59.6646900774035 26.433400496758857 1 0 1
3934 0 1 0 2.1483889493206156 57.17117498893708 26.205286853694414 1 0 1
4178 0 1 0 6.45921644535711 59.690278074716225 26.579196032432073 1 0 1
4174 0 1 0 6.489701296034441 57.21241238975272 26.337142704286318 1 0 1
4179 0 1 0 7.110519988432943 58.46769861996926 26.391192459464467 1 0 1
4175 0 1 0 7.147623423019491 55.94760674705108 26.276021025484745 1 0 1
4203 0 1 0 7.177042116482925 73.24264316732739 27.11255150714733 1 0 1
4199 0 1 0 7.164601671222519 70.79385113847168 27.174735957769656 1 0 1
4417 0 1 0 9.296585819795462 59.70265665046567 26.622435103465662 1 0 1
4180 0 1 0 8.548831360432516 58.44439530887736 26.40137528107988 1 0 1
4413 0 1 0 9.29046692459238 57.21113628904545 26.478579022563043 1 0 1
4176 0 1 0 8.616583126144274 55.94051742172278 26.426497128809537 1 0 1
4185 0 1 0 5.050402893636765 64.61867278806648 26.771151877267148 1 0 1
3948 0 1 0 4.303838637469543 63.37183859173027 26.718916513962554 1 0 1
4181 0 1 0 5.040419593102105 62.10146839666127 26.681837087967 1 0 1
3944 0 1 0 4.293201869857163 60.86497521223473 26.67969114973368 1 0 1
3947 0 1 0 2.9005785699328954 63.335938301753096 26.709250721562455 1 0 1
3943 0 1 0 2.8813526750381735 60.85037618528769 26.60566864097544 1 0 1
3946 0 1 0 2.1585032684326424 64.60289156450445 26.751994798508516 1 0 1
3942 0 1 0 2.197934783484285 62.13437629418365 26.66805529364607 1 0 1
4186 0 1 0 6.432476546258015 64.58738036309073 26.85479454249266 1 0 1
4182 0 1 0 6.406609953080532 62.151457750249214 26.639890567194026 1 0 1
4187 0 1 0 7.173841640421838 63.35375347866336 26.799533954750896 1 0 1
4183 0 1 0 7.128947527293423 60.91570164393031 26.700446507964383 1 0 1
4437 0 1 0 9.32376652800444 72.00075444171948 27.125748580041776 1 0 1
4425 0 1 0 9.274206338808195 64.6080916231681 27.232978575778972 1 0 1
4421 0 1 0 9.270772463516648 62.13795668083196 26.937457245487575 1 0 1
4188 0 1 0 8.591827648601479 63.37117639443481 26.958596824340404 1 0 1
4184 0 1 0 8.568875123740026 60.9158446524582 26.77730810149782 1 0 1
3950 0 1 0 2.1510718224614522 67.0692022535693 26.910959179806266 1 0 1
4189 0 1 0 4.976001931592849 67.09302001831281 26.88396140999012 1 0 1
3956 0 1 0 4.276530363433023 68.26725567177198 27.119227090881672 1 0 1
3952 0 1 0 4.293785308756915 65.84822316934037 26.78348461115872 1 0 1
3951 0 1 0 2.838491047976124 65.82926717420564 26.821808540561886 1 0 1
3955 0 1 0 2.8783994713898906 68.30799904723762 27.10273403924569 1 0 1
4190 0 1 0 6.4354518560804275 67.06125142802198 27.047208765573416 1 0 1
4195 0 1 0 7.1653940236134765 68.29361877749322 27.15892709883769 1 0 1
4191 0 1 0 7.141339803380661 65.8262653491354 27.000872746787834 1 0 1
4196 0 1 0 8.581941729006713 68.32416141918347 27.19023744259744 1 0 1
4200 0 1 0 8.61286226695631 70.80013157748151 27.144816549308736 1 0 1
4429 0 1 0 9.256943782931266 67.07387968851309 27.300083069790364 1 0 1
4192 0 1 0 8.566194247744242 65.83676114747328 27.199269293205575 1 0 1
3954 0 1 0 2.1788401478915773 69.53489331188962 27.158041943513744 1 0 1
3960 0 1 0 4.323191012412354 70.7399230716883 27.310431321185078 1 0 1
4193 0 1 0 5.043715238433075 69.50100895232913 27.270465031755226 1 0 1
3964 0 1 0 4.28533191505135 73.24733148742474 27.248584385675624 1 0 1
4197 0 1 0 5.015032643752418 72.01089696569875 27.227480731607294 1 0 1
3963 0 1 0 2.8697116922658292 73.2370346497302 27.43658539863182 1 0 1
3959 0 1 0 2.864380132057625 70.76303754166828 27.283996647724155 1 0 1
3958 0 1 0 2.2002551957684737 71.99868429139336 27.30821171803474 1 0 1
4433 0 1 0 9.31532635352847 69.54100823017744 27.163080248925286 1 0 1
4198 0 1 0 6.412596062160075 72.01454200761697 27.15198757574346 1 0 1
4194 0 1 0 6.473056532872026 69.53607543116392 27.242990052927063 1 0 1
4204 0 1 0 8.615188263961585 73.19311563502258 27.035226765426778 1 0 1
3933 0 1 0 0.7302590583849518 57.1856159746571 26.09919973291103 1 0 1
3937 0 1 0 0.6895891555611687 59.653553802104604 26.352129933367134 1 0 1
3941 0 1 0 0.7426051209918566 62.140387421845396 26.502091489370173 1 0 1
3957 0 1 0 0.7417779810404902 71.96622504510908 27.24638450768337 1 0 1
3949 0 1 0 0.7479608715580738 67.06278675729133 26.788182138738275 1 0 1
3945 0 1 0 0.7050249609036437 64.55303771167137 26.699363570143063 1 0 1
3953 0 1 0 0.7396990368166128 69.56193635027626 27.058012615036507 1 0 1
3696 0 1 0 0.026552540258976597 55.979902764051694 25.901185996895666 1 0 1
3708 0 1 0 0.04055743399075697 63.31826485103149 26.523586322728946 1 0 1
3720 0 1 0 0.02333467093265238 70.75540883942668 27.19742578552384 1 0 1
3704 0 1 0 0.02596536523517257 60.922877727998035 26.364281376026838 1 0 1
3716 0 1 0 0.0469659761408357 68.28296351683917 27.004971786408444 1 0 1
3724 0 1 0 0.03151437401974821 73.2244798886583 27.366821950683104 1 0 1
4205 0 1 0 5.033718287332529 76.96246732212627 27.45006317037025 1 0 1
4201 0 1 0 5.050208210973082 74.44160567929971 27.315960621105827 1 0 1
3968 0 1 0 4.31432097432942 75.71392713024477 27.46413729316429 1 0 1
3972 0 1 0 4.314667989371033 78.22103127061699 27.521616608036513 1 0 1
3971 0 1 0 2.9024561100229875 78.18293652083918 27.75118963617882 1 0 1
3967 0 1 0 2.904046994141096 75.72070617719918 27.483622660864388 1 0 1
3962 0 1 0 2.1506847753200935 74.46985459355773 27.463542455859795 1 0 1
3966 0 1 0 2.1994825878677147 76.95213026646168 27.671786623697084 1 0 1
4202 0 1 0 6.49404428990169 74.48846498533125 27.217732786070986 1 0 1
4206 0 1 0 6.460741161092376 76.96964151063592 27.306055676496214 1 0 1
4207 0 1 0 7.192496515233308 75.73658692478878 27.252400705988975 1 0 1
4211 0 1 0 7.194302067922698 78.19876894291471 27.26451844555287 1 0 1
4445 0 1 0 9.314638445437529 76.97315893211265 27.129367185673857 1 0 1
4212 0 1 0 8.619645562577073 78.24367151571343 27.140926248771105 1 0 1
4469 0 1 0 9.410254155879153 91.79539737886839 27.27797300716206 1 0 1
4441 0 1 0 9.301287682032907 74.46589616719487 27.130974576430557 1 0 1
4208 0 1 0 8.57620847882008 75.75459491682028 27.15764696463868 1 0 1
3976 0 1 0 4.396193142092589 80.64667137035708 27.802109807340557 1 0 1
4209 0 1 0 5.082100585466995 79.40366508823656 27.605390929948413 1 0 1
4213 0 1 0 5.117327179227835 81.87851897609062 27.715375330369802 1 0 1
3975 0 1 0 2.9683839150969575 80.65083739981674 27.87957269274492 1 0 1
3970 0 1 0 2.2067990831763264 79.44963512327516 27.891856505065892 1 0 1
3974 0 1 0 2.2701171377770324 81.88506785085814 27.855388662062936 1 0 1
4210 0 1 0 6.462852385544288 79.46354809284014 27.398280032651105 1 0 1
4214 0 1 0 6.511633271063976 81.87774241004574 27.547569786173444 1 0 1
4215 0 1 0 7.240574458827929 80.66769589649734 27.48100105250039 1 0 1
4449 0 1 0 9.353080623923852 79.48099014547962 27.175540657493844 1 0 1
4216 0 1 0 8.676665847821429 80.67533692542365 27.374140607683856 1 0 1
4453 0 1 0 9.394889485953879 81.93780023019583 27.381966219067913 1 0 1
3982 0 1 0 2.2054296339235546 86.84332194269956 27.541738888517553 1 0 1
3980 0 1 0 4.3842459128484235 83.11408161554442 27.77614743169756 1 0 1
3979 0 1 0 2.984758272759494 83.13475007881436 27.88596314183485 1 0 1
3978 0 1 0 2.2541109087098192 84.36426041367719 27.79299384881075 1 0 1
4217 0 1 0 5.107930145164879 84.38952819511849 27.70657572370551 1 0 1
4221 0 1 0 5.132740067414801 86.86431753191899 27.519456315359786 1 0 1
3984 0 1 0 4.3731942048772225 85.63408027449671 27.76615884399268 1 0 1
3983 0 1 0 2.939021614790218 85.61047976342053 27.73470751800042 1 0 1
4220 0 1 0 8.67015267952617 83.10587100495755 27.552483870344926 1 0 1
4218 0 1 0 6.5443782833600626 84.372807800739 27.58184460838195 1 0 1
4222 0 1 0 6.561426696172171 86.81921426257071 27.47915620551676 1 0 1
4219 0 1 0 7.26934236458669 83.11682054744561 27.626531155502697 1 0 1
4223 0 1 0 7.249613993945096 85.57616446930709 27.581461601158825 1 0 1
4457 0 1 0 9.411810614310946 84.31293798797097 27.382544160091154 1 0 1
4461 0 1 0 9.3785216805987 86.81567446941973 27.44387996398991 1 0 1
4224 0 1 0 8.69805005974231 85.5956457767864 27.489561562839086 1 0 1
3986 0 1 0 2.2242290139787335 89.33919671060565 27.32968789508698 1 0 1
3990 0 1 0 2.204641419619766 91.82283559824727 27.227417974122893 1 0 1
4229 0 1 0 5.0943553222928 91.82624208072184 27.4000918250264 1 0 1
3992 0 1 0 4.396708352503394 90.57827502078503 27.417472927518077 1 0 1
3988 0 1 0 4.410906288735499 88.09986739046484 27.462423210701694 1 0 1
4225 0 1 0 5.096043165010518 89.36939519020517 27.463176674845588 1 0 1
3987 0 1 0 2.9512789687196386 88.10576005121844 27.461385981754344 1 0 1
3991 0 1 0 2.945407266841228 90.60034215953411 27.300754547607855 1 0 1
4465 0 1 0 9.390204678648868 89.29907673982896 27.44645331206031 1 0 1
4228 0 1 0 8.666043260809534 88.08322399584641 27.44228288482281 1 0 1
4230 0 1 0 6.526432002913234 91.82242247491476 27.266981653650838 1 0 1
4227 0 1 0 7.258056912220715 88.02283164479103 27.430510487859348 1 0 1
4231 0 1 0 7.260130552187639 90.55560036392863 27.416243951930213 1 0 1
4226 0 1 0 6.532609543257909 89.2921920523028 27.461021640699137 1 0 1
4232 0 1 0 8.698543848858845 90.56133227189528 27.403660607157597 1 0 1
3981 0 1 0 0.7974376423945277 86.8384883856657 27.48459444061027 1 0 1
3977 0 1 0 0.8598539092156865 84.34392799990539 27.724303587248613 1 0 1
3985 0 1 0 0.8135882040647255 89.3124531599025 27.343190055223264 1 0 1
3989 0 1 0 0.7821920110501285 91.79897387951128 27.177445959531646 1 0 1
3973 0 1 0 0.8457371452320183 81.88465758413416 27.85145574360462 1 0 1
3961 0 1 0 0.7354902912987917 74.45709049625493 27.500007208796355 1 0 1
3969 0 1 0 0.7699163222448137 79.39689772457494 27.8178403725317 1 0 1
3965 0 1 0 0.7521642959995661 76.90000559420997 27.71191499293493 1 0 1
3752 0 1 0 0.08007574174088206 90.52290920417593 27.331815983178533 1 0 1
3736 0 1 0 0.0779534082380608 80.62108568775217 27.779270811599243 1 0 1
3740 0 1 0 0.12251265656943643 83.07746482693248 27.743802767726187 1 0 1
3744 0 1 0 0.11857732703816042 85.60003501059991 27.630467558231704 1 0 1
3748 0 1 0 0.11986632663908024 88.06849784057073 27.45778937992889 1 0 1
3728 0 1 0 0.008687403674358222 75.71311551101623 27.613504860612483 1 0 1
3732 0 1 0 0.050696255173465314 78.16246360029123 27.746082168488673 1 0 1
4015 0 1 0 2.9482281020085916 105.39491934160091 26.592871998431896 1 0 1
4014 0 1 0 2.198832885614472 106.62786143541273 26.41376112713199 1 0 1
4018 0 1 0 2.226961034158189 109.01897520163865 26.187454763169068 1 0 1
4023 0 1 0 2.952699337246029 110.24551550376607 25.948863189148565 1 0 1
4020 0 1 0 4.386828867744213 107.86052212445689 26.410784682048366 1 0 1
4019 0 1 0 2.9308116542358373 107.81317372443752 26.384359691384233 1 0 1
4257 0 1 0 5.099886360698159 109.07284060887591 26.27456049404084 1 0 1
4024 0 1 0 4.376741312777958 110.26857340815447 25.98277499181801 1 0 1
3996 0 1 0 4.401838462276952 93.02099097465492 27.27085601966873 1 0 1
4233 0 1 0 5.116895944378733 94.21132778574707 27.187931252765154 1 0 1
4000 0 1 0 4.359667921121501 95.50226205176415 27.143241475446484 1 0 1
4237 0 1 0 5.066212982101939 96.72541653808304 27.084008344738915 1 0 1
3999 0 1 0 2.927845230014349 95.52253026026528 27.216321661326866 1 0 1
3995 0 1 0 2.9113597433689113 93.02782257796159 27.131375715046865 1 0 1
3994 0 1 0 2.2016593639404958 94.28403883616461 27.131987550924975 1 0 1
3998 0 1 0 2.2164778721341967 96.77640782533935 27.18077403051644 1 0 1
4234 0 1 0 6.540440856769567 94.23771449033184 27.113099900325086 1 0 1
4238 0 1 0 6.51615326907152 96.72700759006275 26.977982359203974 1 0 1
4477 0 1 0 9.417024205597226 96.74176720980527 27.045838653873112 1 0 1
4235 0 1 0 7.291736324464324 93.03811532873969 27.19100341558583 1 0 1
4236 0 1 0 8.698426964625336 93.02948616829433 27.196024826745465 1 0 1
4473 0 1 0 9.448130212763957 94.28414791526396 27.126179900611266 1 0 1
4240 0 1 0 8.684992726411354 95.49897203147395 26.969418624411663 1 0 1
4239 0 1 0 7.218047097342165 95.48655253494132 26.992191661799367 1 0 1
4004 0 1 0 4.342784261383432 98.03780536622118 27.03261087215749 1 0 1
4241 0 1 0 5.068636930048744 99.25818134100412 26.91043695289261 1 0 1
4008 0 1 0 4.366269292891704 100.49213463359654 27.00298610062306 1 0 1
4003 0 1 0 2.9276702299522177 98.03007859464986 27.155438323600237 1 0 1
4007 0 1 0 2.949310653191518 100.46297305810334 27.075425850268815 1 0 1
4002 0 1 0 2.2366642818466933 99.22892334716244 27.20362736111572 1 0 1
4242 0 1 0 6.534799179014075 99.26112715489968 26.938767818821436 1 0 1
4244 0 1 0 8.682614664087534 97.97315067532072 26.89626672618768 1 0 1
4481 0 1 0 9.406204071636417 99.20010892349306 26.914323026179318 1 0 1
4243 0 1 0 7.278498938495819 97.98431960109369 27.011391570575395 1 0 1
4248 0 1 0 8.727678622556196 100.43732198202291 26.90515620050845 1 0 1
4247 0 1 0 7.2729093075856905 100.44974681329221 26.873836337281816 1 0 1
4006 0 1 0 2.2407821465187228 101.70662981864083 27.042140622238612 1 0 1
4245 0 1 0 5.100504946339983 101.69167441016445 27.04175882253441 1 0 1