LAMMPS data file via write_data, version 4 Feb 2025, timestep = 500000, units = metal

9750 atoms
2 atom types

0 64.17 xlo xhi
0 61.75 ylo yhi
0 75 zlo zhi

Masses

1 1.007999999740698
2 15.99899999588435

Atoms # full

4918 0 2 0 0.427987395676302 6.8560250082006515 1.81404738432347 0 0 0
7221 0 1 0 5.387922339932606 6.767749759664408 1.9245243160174703 0 0 0
2006 0 1 0 1.0111869044326258 1.531416738394993 0.32569014019353587 0 0 0
9589 0 2 0 2.2456813824700355 2.984472694634022 2.9623259396159916 0 0 0
7283 0 1 0 7.296734244274266 5.3855284827163015 4.803780434794669 0 0 0
9590 0 1 0 2.6449522014327878 3.6124995621373936 2.389072720855508 0 0 0
9591 0 1 0 2.96711217102763 2.257155375534971 3.0484133790412167 0 0 0
4242 0 1 0 0.8975459152921801 2.288867171937678 1.9795030328836891 0 -1 0
4920 0 1 0 0.3321726380020811 6.660401973638277 0.8458867621257421 0 0 0
7077 0 1 0 4.064211629334764 0.3327546245423459 2.803639153800708 0 0 0
4240 0 2 0 0.03471357602788533 2.1620653138347 1.4867611777928327 0 -1 0
6782 0 1 0 7.003055660418101 2.5546704582102278 3.9952340208465476 0 0 0
7988 0 1 0 2.140806023392074 4.240900677009637 4.4445931088627315 0 0 0
7284 0 1 0 6.536200373701119 5.942773642422087 3.5518931063659234 0 0 0
6781 0 2 0 7.104497265954191 1.6253176854975795 3.647873621022216 0 0 0
7282 0 2 0 7.240163225558804 5.303020199370154 3.805795693277823 0 0 0
2338 0 2 0 2.9532071036219056 4.366748212055853 0.6553755783256584 0 -1 0
7219 0 2 0 5.300328245247521 7.077350961594926 2.8799739110665143 0 0 0
2340 0 1 0 3.3701015119790254 5.210909512257715 0.764160587826169 0 -1 0
3607 0 2 0 4.886916329320666 6.3633309057610346 0.18438854384224337 -1 0 0
7076 0 1 0 4.362617746857126 1.2776307587858726 1.7094908255004482 0 0 0
6783 0 1 0 6.204661447654834 1.2641514141560226 3.328647664721079 0 0 0
7075 0 2 0 4.374173130678379 1.2218984136179414 2.720897807407552 0 0 0
8498 0 1 0 7.980514337728981 2.567551412344801 2.191468017021069 0 -1 0
7989 0 1 0 0.9848665450007206 5.231688268028961 4.999908765766441 0 0 0
7987 0 2 0 1.7407086026504528 4.610333092542068 5.249546921598035 0 0 0
785 0 1 0 1.4350644063535773 3.0999723288575836 6.568761017198756 -1 0 0
8210 0 1 0 1.2882874638975492 0.14332479560803044 9.450588645401321 0 0 0
786 0 1 0 0.8864300574667426 1.6371355624833568 6.812425823245946 -1 0 0
784 0 2 0 1.502031169324679 2.314078179198818 7.182790869037973 -1 0 0
3372 0 1 0 5.937902891109757 5.363125693509232 7.0503014073101395 -1 0 0
8211 0 1 0 1.4186560960886505 1.6372238989405563 8.987413859069115 0 0 0
1688 0 1 0 3.1316553500782702 1.3031454570388643 7.427702195312704 0 0 0
4080 0 1 0 5.473981475937798 6.760935664544129 8.94553696241428 0 -1 0
6900 0 1 0 2.6761594191518707 5.110168985981146 6.735733171661993 0 0 0
6899 0 1 0 3.1138268680419 4.747269926577911 8.19086678272358 0 0 0
6898 0 2 0 2.8249354073141237 5.483687413281333 7.649924849821285 0 0 0
3371 0 1 0 5.88622981952722 3.82082943168667 6.783801943752871 -1 0 0
1475 0 1 0 0.9616302304988315 5.732014918794471 8.6888659432985 -1 0 0
2848 0 2 0 6.577136890978001 6.496570261317948 10.55369002492081 0 0 0
8209 0 2 0 1.053505866530993 1.1044489865046323 9.736611313106426 0 0 0
4079 0 1 0 4.244972840223092 6.706323088726608 7.9329731988437935 0 -1 0
4317 0 1 0 4.941488443800302 2.2313876515045563 9.455081326087027 0 0 0
568 0 2 0 5.8849407056342935 2.4899420233874876 8.093951396117747 -1 0 0
569 0 1 0 6.716469560038879 2.0307887311799706 8.143537837446154 -1 0 0
570 0 1 0 5.370825760003009 1.9490183767302973 7.537081692080912 -1 0 0
4078 0 2 0 5.253002121331614 7.061056320456369 8.012885175420159 0 -1 0
3370 0 2 0 6.393663891033375 4.598965383818994 6.634098549707386 -1 0 0
1474 0 2 0 0.6932811424548163 5.773166369057965 9.60418203800231 -1 0 0
1687 0 2 0 3.8344023505065583 0.6575936691162879 7.189043554643752 0 0 0
4316 0 1 0 3.8882211208765223 1.2772299735289963 10.239410468019319 0 0 0
2850 0 1 0 6.882348565695992 5.59013678431398 10.537798444620735 0 0 0
1476 0 1 0 1.5379405848468226 5.553276442834632 10.076566617182948 -1 0 0
7287 0 1 0 0.8000866821453664 7.515333808408243 9.918800554860093 0 0 0
4315 0 2 0 4.311368832865084 2.1285931377600598 10.221406087573015 0 0 0
5268 0 1 0 3.3395041491408577 3.681438207309284 10.534109132145934 -1 0 0
1037 0 1 0 2.428455133656426 6.289857842921927 14.25445911254522 -1 0 0
3736 0 2 0 0.06811416771803491 2.5703142567239436 12.108618507006332 0 0 0
5533 0 2 0 4.604743560547434 1.8707906894083992 13.87155746592257 0 0 0
5534 0 1 0 5.160077616048998 1.5662895302976692 13.196512074832228 0 0 0
5535 0 1 0 4.580081528146221 1.2269285247793513 14.602493662593112 0 0 0
7276 0 2 0 1.8736403291396715 0.5010587410640078 13.742296953055767 0 0 0
5267 0 1 0 3.0088978307265064 3.8926700299911103 11.925621997591852 -1 0 0
6953 0 1 0 4.472861458165443 3.543603567120361 13.776103641010211 0 0 0
7448 0 1 0 6.633650004930518 5.318338036390117 15.736309537074556 0 0 0
7277 0 1 0 2.6122846502986405 1.1571030298260534 13.89909583250601 0 0 0
6659 0 1 0 6.37128793835144 0.1148205844972523 11.979812033477343 0 0 0
3738 0 1 0 0.636241927276557 2.1870401362543577 11.421052029021785 0 0 0
5266 0 2 0 2.785032880939287 4.285735458194204 11.073323411864536 -1 0 0
2703 0 1 0 6.710352775373784 7.708250397206355 13.728300736131969 -1 -1 0
1038 0 1 0 3.3377909815853966 7.464417088133313 13.707548937580064 -1 0 0
1036 0 2 0 2.6660251647709217 6.772661677271823 13.46905847857405 -1 0 0
6660 0 1 0 7.3860175870244165 0.5676030686885711 13.022609350997511 0 0 0
6954 0 1 0 3.8705046813844457 5.038556411234671 13.463637516421647 0 0 0
6952 0 2 0 4.63438801647635 4.494739291640527 13.445916742248082 0 0 0
2849 0 1 0 6.473747121361584 6.8672874990062285 11.443011013421946 0 0 0
6997 0 2 0 2.4263224935960594 4.991833854302932 15.760266012936825 0 0 0
7278 0 1 0 1.1414734479047626 0.9657527115439595 13.246481809948031 0 0 0
7447 0 2 0 6.091983416707826 5.937596674915377 15.207974795673875 0 0 0
6252 0 1 0 6.140450843803826 3.854047648005013 12.250767395991467 0 -1 0
6658 0 2 0 6.731881457429486 0.9132631404428021 12.313679527271283 0 0 0
6251 0 1 0 6.996175924550725 2.8955983788383484 11.37482023467139 0 -1 0
6250 0 2 0 7.030250120312195 3.7666871902993515 11.769852055182875 0 -1 0
7449 0 1 0 5.549228719603497 5.335115829309868 14.701364180857809 0 0 0
9503 0 1 0 6.367549674199632 1.2561458111771993 15.938101506439162 0 1 0
6999 0 1 0 3.328765102520139 4.679870072684844 15.96786735276997 0 0 0
5364 0 1 0 1.5128456306547846 0.3275061468146458 20.00237632146719 -1 0 0
7346 0 1 0 2.3202164433812986 4.821220422506483 19.918818594217655 0 0 0
5765 0 1 0 7.447195154631803 3.102809744817265 20.46684005844013 0 0 0
7627 0 2 0 5.108802809895203 6.544362795053469 20.220451259449927 0 0 0
8626 0 2 0 0.2330925274035577 5.568938695154646 19.709158706633286 0 0 0
5766 0 1 0 7.848932312447301 4.64795977980471 20.359015055291945 0 0 0
889 0 2 0 7.3828285827564955 4.102247481262097 17.109940712537867 -1 0 0
6992 0 1 0 0.6921260901413593 7.617408167089967 20.088326691920088 0 0 0
6820 0 2 0 2.2209187425416292 7.500801865568148 17.224215388263392 0 0 0
7048 0 2 0 3.8629306007067186 1.1670361695467641 17.927550378853297 0 0 0
9621 0 1 0 3.9076114802563477 4.227055061082388 18.375302801969124 0 0 0
9619 0 2 0 4.363724577363801 3.90205449635766 17.59260967485975 0 0 0
9138 0 1 0 5.396200611058221 6.749704207796101 16.58907856582626 0 0 0
7345 0 2 0 3.2372831523352295 4.562896249883638 20.018975868478748 0 0 0
8480 0 1 0 4.325585149450548 1.9751246589011249 20.142533433183345 0 0 0
5764 0 2 0 7.864192576372185 3.782219725646268 19.824122742181988 0 0 0
8481 0 1 0 4.007516008842119 3.0300381982418454 21.13545852565611 0 0 0
8479 0 2 0 4.446400092662646 2.1531555049926148 21.108516281146734 0 0 0
7347 0 1 0 3.8035630456732252 5.27264040868482 20.35593827235581 0 0 0
9504 0 1 0 7.441467330220208 2.1609890949933837 16.71543432478533 0 1 0
7629 0 1 0 5.905031152126898 6.56801376548063 20.767569466159337 0 0 0
9620 0 1 0 5.249160045919006 4.334942727176147 17.59579703038228 0 0 0
6821 0 1 0 1.9579678390128485 6.648264869848376 16.887530796639915 0 0 0
891 0 1 0 7.544131184041262 4.185512520302941 18.070717763204883 -1 0 0
9502 0 2 0 7.299895355365561 1.2789662972120832 16.328346866134947 0 1 0
9137 0 1 0 4.31151510185627 7.408596516583766 17.378089889331783 0 0 0
7050 0 1 0 3.0017808505601216 1.1772502378542318 18.304846106296882 0 0 0
5363 0 1 0 2.4641710361116576 1.2261754652212618 20.945217802054096 -1 0 0
7628 0 1 0 5.420345601707473 6.544018959356076 19.28432397846353 0 0 0
7049 0 1 0 4.105140127747617 2.1251506285027526 17.69261329961018 0 0 0
6822 0 1 0 1.93352678648942 7.584190642430193 18.135087256317686 0 0 0
5362 0 2 0 1.5379964444349867 0.8134389936545723 20.84600744224795 -1 0 0
9136 0 2 0 5.287699080571283 7.296152665252225 17.411110104415684 0 0 0
6998 0 1 0 1.7158184451940246 4.429764549677425 16.14585092620047 0 0 0
5951 0 1 0 6.734770613057508 3.004231107011108 23.46980797988766 0 -1 0
5950 0 2 0 6.543456333589158 3.9786123652965126 23.586924322561227 0 -1 0
912 0 1 0 7.185553637654692 5.230189363298388 22.26752886812223 -1 0 0
5952 0 1 0 5.695801549439081 3.9468212076330107 23.99213338209206 0 -1 0
910 0 2 0 7.378809002178324 5.917743628556406 21.575287673132014 -1 0 0
6220 0 2 0 7.1158861697187366 1.9597018454184651 21.692269407881913 0 0 0
6221 0 1 0 6.161614730691709 1.6982939120342577 21.540059515670336 0 0 0
6222 0 1 0 7.717128614637804 1.1243392189982109 21.52407545356523 0 0 0
3722 0 1 0 4.575264741667892 4.335868570204064 72.79299255907873 0 0 -1
3609 0 1 0 4.630308144807664 7.173255866197322 74.68685335030032 -1 0 -1
813 0 1 0 5.262676836388705 0.3439299766644676 72.01657061857622 -1 0 -1
2339 0 1 0 3.4097934447518474 4.014469138174751 74.79949614287968 0 -1 -1
6193 0 2 0 4.440620571306935 1.3230023700137705 74.87002195106264 0 0 -1
3721 0 2 0 4.090631684964133 3.6285372743083464 73.18798735589061 0 0 -1
8447 0 1 0 2.5175765111761974 6.172689810047616 71.63362096599349 0 -1 -1
8448 0 1 0 2.998646994332718 7.002376418651128 70.34835887605408 0 -1 -1
8446 0 2 0 3.1244506963977563 6.901412334343803 71.31893494996223 0 -1 -1
6194 0 1 0 3.482974288021295 1.5037356690263013 74.77272651031845 0 0 -1
4718 0 1 0 0.42301152367978373 1.3393367202439526 72.85556736094814 0 0 -1
3678 0 1 0 7.666482338225656 5.748755404443309 73.60254748292398 0 0 -1
3677 0 1 0 7.1533667706092645 4.364865531438525 73.51581257886933 0 0 -1
6897 0 1 0 6.7854868017924135 1.4543398284791322 73.37155981259541 0 0 -1
1531 0 2 0 1.048070450434195 5.63892213295386 74.03713106944076 -1 0 -1
3608 0 1 0 5.566012044747188 5.818009799922512 74.65456535146583 -1 0 -1
811 0 2 0 6.158139886795463 0.778437127832044 71.832156276159 -1 0 -1
3723 0 1 0 4.773749176673846 3.154120961323434 73.74769093575257 0 0 -1
6895 0 2 0 7.183899186539792 2.225017611876263 73.8134199368912 0 0 -1
812 0 1 0 6.027475910783569 1.4525538964031053 71.16112028086485 -1 0 -1
3676 0 2 0 6.78553945597791 5.238624727554956 73.70489049946396 0 0 -1
3675 0 1 0 0.771516089538561 4.607922219769547 72.47389664579553 0 0 -1
3674 0 1 0 0.38350414416048645 3.5402014262248485 71.40197853887587 0 0 -1
3673 0 2 0 0.700902003682061 4.454779167961609 71.54002157642498 0 0 -1
2005 0 2 0 1.5409000354118878 1.2023281856513712 74.60563706116072 0 0 -1
1532 0 1 0 1.4476433448426613 6.507883920236479 73.8171911320971 -1 0 -1
1533 0 1 0 1.60244413931674 5.1447643632601325 74.74972305276953 -1 0 -1
4717 0 2 0 0.08418601480265805 1.4530961516323246 71.95192076754739 0 0 -1
6195 0 1 0 4.576931719572531 0.5336753073593395 74.33966168798898 0 0 -1
6896 0 1 0 6.9615050135853105 2.1139087842382773 74.73225795892371 0 0 -1
2007 0 1 0 1.4721015335538878 0.2688667770853677 74.80602398778016 0 0 -1
8496 0 1 0 1.3585012600580681 15.11164764052582 1.4180310563765903 0 -1 0
7816 0 2 0 0.9002856701095862 11.39229673461214 1.23744653191545 0 0 0
8494 0 2 0 0.6987581845492679 14.670377455911465 0.852273134386687 0 -1 0
7220 0 1 0 5.322352988180649 8.041530894228542 2.8900582055244937 0 0 0
7818 0 1 0 1.6911649572142742 10.961869929608717 0.7540435921787936 0 0 0
7817 0 1 0 0.574764285969524 10.68705032573042 1.8305006974617786 0 0 0
8495 0 1 0 0.7218533901928479 13.786659820835117 1.2832531663363052 0 -1 0
6723 0 1 0 3.558860038795871 9.57246723441502 3.4188887482970265 0 0 0
5375 0 1 0 5.952756119806893 12.49876248972942 1.491751518932114 -1 0 0
3399 0 1 0 6.415923064125087 10.321627556088087 0.3548828831449876 0 0 0
6722 0 1 0 4.166406991290675 9.78601129475291 2.1132289183895123 0 0 0
3398 0 1 0 7.886577138516135 10.293642896793394 0.95664611574121 0 0 0
6356 0 1 0 1.9865486473122125 12.551084526950056 3.370617811088912 0 0 0
6355 0 2 0 1.2093252818046913 12.755660499647908 3.95137396978946 0 0 0
5374 0 2 0 6.024777738567255 13.452271026258083 1.242756628718681 -1 0 0
5519 0 1 0 5.866286125724092 14.899783683531755 2.0721082742603354 0 0 0
6679 0 2 0 6.903866977235529 10.414449005965228 4.503182660557578 0 0 0
9212 0 1 0 6.170283615245519 13.444756720070277 5.186649829399068 0 0 0
3764 0 1 0 7.972309030647603 12.318404145126452 4.97390515931754 0 0 0
3397 0 2 0 6.974658957901477 10.452482466863911 1.1837635127396113 0 0 0
6721 0 2 0 4.459165817276968 9.741453922437156 3.010354625318697 0 0 0
6680 0 1 0 6.151892207372103 10.731158201501366 3.946454643578359 0 0 0
6357 0 1 0 1.5120049557737758 13.491671315824322 4.503443203649616 0 0 0
5376 0 1 0 6.68249455597803 13.45004778572012 0.46273097718364037 -1 0 0
8098 0 2 0 1.626277102157054 8.43130284150337 4.033191701652286 0 -1 0
6681 0 1 0 7.348543860759508 9.846972538733963 3.865697435332946 0 0 0
4783 0 2 0 3.2539945168898554 10.67699022991742 0.21021412506992976 0 0 0
8100 0 1 0 0.7890483844097446 8.691152734892649 4.489047906293856 0 -1 0
3048 0 1 0 2.740845915009415 15.1806467442341 3.967991542111846 0 0 0
8099 0 1 0 1.2673809257104347 8.074610586965493 3.2122592208203304 0 -1 0
7581 0 1 0 1.5749769616779934 11.862835791060293 10.122408807221666 0 0 0
3489 0 1 0 1.9756605897806665 9.837846270003947 6.800842156802689 0 0 0
7995 0 1 0 5.105308218174484 14.839161490278391 6.959940573727494 0 -1 0
8992 0 2 0 1.0051541150107117 11.40456813958702 6.7380590910633265 0 0 0
7285 0 2 0 0.8628412906710194 8.507873189577625 9.815464085859546 0 0 0
3656 0 1 0 6.115343111489119 8.533867532912884 7.311258577098275 -1 0 0
7058 0 1 0 4.082981591829876 9.140142789009422 8.696287110944635 0 0 0
9211 0 2 0 5.4751770031730205 13.330288587457021 5.878860628814021 0 0 0
3655 0 2 0 6.5945213514908145 9.42410311100241 7.159835653679206 -1 0 0
7059 0 1 0 5.132266749413436 9.555949774663944 9.592060783725625 0 0 0
1482 0 1 0 3.372340555197855 13.823190020135167 5.577539090286728 -1 0 0
8994 0 1 0 1.1306719508054592 11.891749969525417 7.590961437219154 0 0 0
7580 0 1 0 2.229786676437566 13.070298552486788 9.441014847971196 0 0 0
7579 0 2 0 1.8860260320010178 12.155771490043291 9.227497839624979 0 0 0
7057 0 2 0 4.176736936696248 9.780354957791076 9.451844701301194 0 0 0
4233 0 1 0 6.3893860603871975 10.878773029175129 7.806406425454851 0 -1 0
4231 0 2 0 6.352519078704652 11.893083879906577 8.106089634505313 0 -1 0
9213 0 1 0 5.874600461844692 12.774966024931159 6.573104262872608 0 0 0
8993 0 1 0 1.1510688099062862 11.950171737328624 6.015481714807818 0 0 0
3657 0 1 0 6.584396420635322 9.766497875415098 6.272411015673457 -1 0 0
1481 0 1 0 2.33274718281982 14.97923071350428 6.3608096537734795 -1 0 0
3381 0 1 0 0.985919253092653 15.245975616009092 10.0970031274312 -1 0 0
1897 0 2 0 6.935574044255101 9.959145788798226 10.493913040582346 -1 0 0
7286 0 1 0 1.2143572011088593 8.753651735363382 8.942483861485695 0 0 0
7875 0 1 0 5.728619948572599 13.735147775759275 9.920915385571405 0 -1 0
4232 0 1 0 5.660540316737006 11.729907199570704 8.758446510611082 0 -1 0
9705 0 1 0 7.5999900944636485 12.720128360074144 8.50757786277887 0 0 0
7994 0 1 0 5.18588397967267 15.28610281794501 8.539698634888598 0 -1 0
3488 0 1 0 2.3211226542664907 8.376008871103167 6.304359130365607 0 0 0
3487 0 2 0 2.313923239043766 8.95562218598195 7.090349379663602 0 0 0
1480 0 2 0 2.4910563711399756 14.240741108469729 5.685219026771073 -1 0 0
7873 0 2 0 6.1865315630378515 14.61142462574968 9.925129980720461 0 -1 0
7874 0 1 0 7.020081221168865 14.450131189536503 9.359362013851435 0 -1 0
3545 0 1 0 4.1345309273333894 11.624333354648895 10.421218464055107 -1 0 0
2702 0 1 0 5.722619352300617 8.736680497023595 13.16722247098157 -1 -1 0
7406 0 1 0 0.1701615057296302 12.950668783603057 12.038339780421973 0 0 0
5842 0 2 0 0.25858378776008484 12.302243557877615 14.77410355186277 0 0 0
7214 0 1 0 1.207087496838325 9.760009744218673 12.201273719843291 0 0 0
7213 0 2 0 1.7265328597518792 10.355651142791668 11.614929845185204 0 0 0
6051 0 1 0 1.902653010309083 11.48325703046063 15.117151811427021 0 -1 0
1898 0 1 0 6.320197704297214 10.619844248946684 10.891992747518882 -1 0 0
9729 0 1 0 3.5937750562040174 9.54626842023314 12.48156963193022 0 0 0
7215 0 1 0 1.6585258188443284 9.766288443515384 10.806138506347146 0 0 0
9132 0 1 0 3.443251980337921 14.276114882543155 12.381088163447135 0 0 0
6049 0 2 0 2.788095807006046 11.07557305377071 15.189539705141469 0 -1 0
9727 0 2 0 4.1225473505743775 9.445508019803235 13.30336690513606 0 0 0
1280 0 1 0 1.499260216760599 7.944671950267923 13.50009380065599 -1 0 0
2701 0 2 0 6.600992368566949 8.276915709573366 12.966109956905479 -1 -1 0
7405 0 2 0 0.8342928435493342 13.556915288098276 11.622575003540247 0 0 0
6695 0 1 0 6.541785819448478 10.729312598309445 14.589446026753638 0 0 0
3546 0 1 0 4.3050380454941015 12.558110524979947 11.681823245313076 -1 0 0
1281 0 1 0 0.12124241893193205 7.925442628032724 12.797333712973485 -1 0 0
3544 0 2 0 4.745302923695268 12.175653218536286 10.90528899793996 -1 0 0
9040 0 2 0 4.893656118053356 13.455798816970622 15.256536049599845 0 0 0
1279 0 2 0 0.6935430781840003 8.495793386095952 13.29967276313202 -1 0 0
6694 0 2 0 6.416984296917481 11.485583084851934 14.007296585444246 0 0 0
6696 0 1 0 5.680088497066259 11.210671466795622 13.45014352516313 0 0 0
9131 0 1 0 3.852386219852638 13.529582823692524 13.73671832702771 0 0 0
3146 0 1 0 5.588397055092699 14.96482503955113 15.854276368452195 -1 0 0
1899 0 1 0 6.9263230246959155 9.38359322614717 11.25155039721115 -1 0 0
9042 0 1 0 5.585379166802318 12.954129043594177 14.891908891825052 0 0 0
9728 0 1 0 3.6559953123667497 10.177182360971578 13.857637999535962 0 0 0
9130 0 2 0 3.4582512426000895 13.366742868268854 12.775617469431817 0 0 0
9041 0 1 0 4.5362011490142296 12.833251665790922 15.919773125417999 0 0 0
7407 0 1 0 1.6129871650074463 13.489302853817179 12.198539125162387 0 0 0
9177 0 1 0 2.432680599822278 11.940544302954105 18.056323532526857 0 0 0
1517 0 1 0 0.6481217995868784 10.902958613208405 17.77340118375366 -1 0 0
1528 0 2 0 2.4604102119934477 14.747417677734072 16.756454358493187 -1 0 0
9175 0 2 0 1.7964423032031118 12.620085549860898 18.17627094322405 0 0 0
4342 0 2 0 3.5747818405427862 9.013743446922204 20.747462091984794 0 0 0
1247 0 1 0 2.1807084525108458 14.051876701124074 19.586509514339756 -1 0 0
1248 0 1 0 3.021216158164261 15.253518101468574 19.915589480867453 -1 0 0
9176 0 1 0 1.9787607733147528 13.271577485273058 17.503368160458766 0 0 0
4344 0 1 0 3.69662276373628 9.442699219459364 19.864155971293837 0 0 0
4343 0 1 0 4.0705655578538895 8.174627185619812 20.629045842109164 0 0 0
6991 0 2 0 1.241362594509642 8.329739778417757 19.648775456497038 0 0 0
1529 0 1 0 1.679499731021573 15.187827213106695 16.371225457606297 -1 0 0
9461 0 1 0 6.12247876181062 8.859911246640433 16.462574408808916 0 0 0
2697 0 1 0 6.44343967167267 10.955277328104605 17.12129239836493 -1 0 0
6050 0 1 0 2.922239255273591 10.798092850836605 16.130513130333163 0 -1 0
138 0 1 0 4.730446149196496 10.916715570011059 18.247191151728902 -1 -1 0
137 0 1 0 4.032771143528067 9.611752965107867 17.964812729067663 -1 -1 0
2695 0 2 0 6.093219430781288 11.743286859627723 17.643279781723322 -1 0 0
1246 0 2 0 2.1071696960336084 14.89363785290918 20.071246094572622 -1 0 0
6993 0 1 0 2.0059858270490163 8.575404370003788 20.25818585850666 0 0 0
1518 0 1 0 0.34653105949893837 9.531456522243966 18.49013342262296 -1 0 0
136 0 2 0 3.8588362849709044 10.45382262180008 18.39026452175245 -1 -1 0
2696 0 1 0 6.856735722192271 12.117677625307596 18.121463656023753 -1 0 0
1530 0 1 0 2.846044959588623 15.324161805341848 17.410059608309073 -1 0 0
9459 0 1 0 7.767505056467103 14.349258973237939 16.639015363506797 0 0 0
9462 0 1 0 7.670335121288627 9.072622723279224 16.114476557534363 0 0 0
1516 0 2 0 0.006261258191841534 10.203880840191795 17.841246220397633 -1 0 0
9460 0 2 0 6.783832020713615 9.48894378301166 16.073953684463618 0 0 0
846 0 1 0 2.6847331541628767 13.775557444563729 74.86703741106524 -1 0 -1
6092 0 1 0 2.586757667787663 8.08785484320323 72.63233550953264 0 -1 -1
6091 0 2 0 2.3591607392472866 8.243217339329373 73.56059056023508 0 -1 -1
844 0 2 0 3.5046163750023185 13.348346522610083 74.46254530726351 -1 0 -1
6685 0 2 0 0.14783385792974232 10.536607877756643 73.19064856466834 0 0 -1
7240 0 2 0 7.830478995065359 14.409698675750747 74.43139726204737 0 0 -1
6093 0 1 0 1.5116619863189493 8.740883455994283 73.48846554540825 0 -1 -1
4784 0 1 0 3.534741856912744 11.566564451056443 74.9081898254836 0 0 -1
4785 0 1 0 3.190717221279939 10.134900255835076 74.43065626885632 0 0 -1
845 0 1 0 4.305836548659855 13.838365527002773 74.8126380413419 -1 0 -1
6687 0 1 0 0.1703644169333529 10.89818265287597 74.1255760968972 0 0 -1
5169 0 1 0 3.489747764234065 18.652529187549273 3.512642416944911 0 0 0
8925 0 1 0 1.0649733398994172 18.199544112807544 2.425562937303646 0 0 0
3047 0 1 0 2.5510897888699406 16.570281734662572 3.1045181380776627 0 0 0
8923 0 2 0 1.769262501910385 18.229231430078404 3.119130995418681 0 0 0
5580 0 1 0 5.2009652172336365 18.779283733095905 1.3651799408925827 0 0 0
8924 0 1 0 1.3391291419499387 18.727184263307393 3.8523738792365223 0 0 0
3046 0 2 0 2.7800515644593444 15.640743956146048 3.1018426462532687 0 0 0
5578 0 2 0 5.109176385516721 18.05280286940158 0.714559155026778 0 0 0
333 0 1 0 0.6995211314778683 18.09061728238401 0.18485940805101533 0 -1 0
198 0 1 0 4.8476660678725505 21.73829178258226 3.3434899846069985 -1 -1 0
2332 0 2 0 0.9006484043800367 21.49630844562221 1.7705351022603848 0 -1 0
2333 0 1 0 0.16496085669086427 20.85369955977986 1.8347389388812725 0 -1 0
9569 0 1 0 3.589597610242021 18.375221820619856 0.0496732393598624 0 0 0
2147 0 1 0 7.938388366955697 18.188572657395632 4.735834273283054 -1 -1 0
5167 0 2 0 4.489396434996443 18.56914353856408 3.737191316812752 0 0 0
6243 0 1 0 7.638242216208745 16.22954834144439 2.331229212753143 0 -1 0
196 0 2 0 5.417002933397563 21.163736373401566 3.9080444790681477 -1 -1 0
197 0 1 0 5.1094071704348645 20.205977811667765 3.8641887685441003 -1 -1 0
5168 0 1 0 4.5294840601824 18.260547656237193 4.650510608966002 0 0 0
2334 0 1 0 1.4254698302576925 21.298441496612064 2.5339882214108735 0 -1 0
3296 0 1 0 7.251388646021262 21.505009849682946 3.365389360523613 0 0 0
5520 0 1 0 4.64800342897349 15.635064916059047 2.732069890643214 0 0 0
5518 0 2 0 5.648377195109937 15.718862337835997 2.5370867777912354 0 0 0
4408 0 2 0 1.7353130440128246 20.20921388837003 5.226287366410087 0 -1 0
2148 0 1 0 7.493195986751992 19.54927065507251 4.382938985155698 -1 -1 0
5579 0 1 0 5.359065458586131 17.242276054544476 1.2346993390536833 0 0 0
3205 0 2 0 4.245221177653977 23.01093938656493 1.356246031087914 0 0 0
3207 0 1 0 3.316401506461869 22.91655163398546 1.1724820313600124 0 0 0
3206 0 1 0 4.674777666467949 23.14624132333517 0.4989271257342249 0 0 0
1173 0 1 0 3.721486455964506 22.517777405745512 9.722400012076804 -1 0 0
8710 0 2 0 7.062995901436039 17.085230480841833 6.0962003958465365 0 0 0
8641 0 2 0 2.4428182349079033 19.71608338387158 8.081020852876286 0 0 0
8643 0 1 0 2.8115374955395644 18.862675843166567 8.380094355281656 0 0 0
1662 0 1 0 1.137010676645182 17.20817575453728 6.343585268238017 -1 0 0
8612 0 1 0 3.8025048363418352 16.562421677917843 8.471504252838571 0 0 0
1660 0 2 0 1.929599959373094 16.779531438058136 6.834136739348393 -1 0 0
8611 0 2 0 3.5764686678003135 17.0563422815632 9.317673709920212 0 0 0
8711 0 1 0 7.657448949777581 16.35947656974264 6.1541412291656235 0 0 0
8613 0 1 0 4.419760647219723 17.49547933669398 9.66857943306441 0 0 0
8642 0 1 0 1.4740378612906675 19.61111571266449 8.164501044260778 0 0 0
3379 0 2 0 0.5118773296863507 15.742835332915286 9.410789256065586 -1 0 0
4870 0 2 0 7.475679820437427 19.181887842511077 8.206653572799206 0 0 0
4871 0 1 0 7.123222385023378 18.56102040098232 7.5637659805943365 0 0 0
1172 0 1 0 3.0725038225352628 21.14443418005331 9.407275974213778 -1 0 0
2581 0 2 0 5.7003590194885545 18.38982340853642 10.498972187918513 -1 0 0
4872 0 1 0 6.857288202187459 19.101597575602526 8.922887060081079 0 0 0
5718 0 1 0 7.664890197786643 21.483163719190017 7.079561071649778 0 0 0
1534 0 2 0 4.911960318331102 21.650346495658344 6.89974049249885 -1 0 0
1536 0 1 0 5.254040033913118 21.47003863060668 5.975730300805412 -1 0 0
8712 0 1 0 6.353287060371582 16.843921313660513 6.6812888962335135 0 0 0
1535 0 1 0 4.017344079571095 21.31184104445885 6.944924732714987 -1 0 0
4409 0 1 0 1.888439962305841 19.719092175613753 6.076701394359312 0 -1 0
1171 0 2 0 2.957459805041636 21.94828386451559 9.948635452395918 -1 0 0
1661 0 1 0 1.486275097421895 16.535283134262666 7.680565278872993 -1 0 0
7993 0 2 0 4.8469348588487415 15.499783004884383 7.619637460356387 0 -1 0
4410 0 1 0 2.0458273413996175 21.103422714916018 5.420730546126296 0 -1 0
3380 0 1 0 0.2634720653658768 16.551659062813314 9.921820055179538 -1 0 0
1632 0 1 0 2.159235971845644 22.70047317945248 13.287446832105278 -1 0 0
1631 0 1 0 2.5373526404188373 22.212500401426 11.705126534507666 -1 0 0
8606 0 1 0 1.765108733613896 20.467909057265487 13.147177378590166 0 0 0
2582 0 1 0 5.327195893611773 19.208358743156058 10.776966795261071 -1 0 0
5801 0 1 0 5.940530079176035 15.65990667050365 11.68634212251837 0 0 0
2583 0 1 0 5.529995607268458 17.77063497432429 11.228418890956391 -1 0 0
875 0 1 0 3.355341573456166 16.189829434747367 12.330452117710228 -1 0 0
8742 0 1 0 2.2175564185940293 16.958079531683506 14.574695513907876 0 0 0
1633 0 2 0 7.250732509541153 17.455133116406966 14.24740751225706 -1 0 0
8740 0 2 0 3.1303670062653843 17.250891357516593 14.602844775155397 0 0 0
9106 0 2 0 0.08034591939394846 17.168961355187804 11.953722967836717 0 0 0
1630 0 2 0 2.1148759299515483 22.015771286872155 12.583329580104722 -1 0 0
3147 0 1 0 6.638321421297981 16.107223833932412 15.546366626236262 -1 0 0
8607 0 1 0 1.724307633549602 19.573011689874864 14.384161034532887 0 0 0
5802 0 1 0 6.272947558517197 16.626851672781587 12.924540851224563 0 0 0
874 0 2 0 2.6452291137534143 16.164976088845194 11.649911066110313 -1 0 0
3515 0 1 0 4.804318003474452 21.530253620073456 11.732704417728332 -1 0 0
8015 0 1 0 4.418796007183595 19.172426155512497 14.823463575057268 0 -1 0
8741 0 1 0 3.6661247698446444 16.487764338998442 14.673591271648021 0 0 0
3516 0 1 0 6.268267290872156 21.29567789277237 12.168685848006529 -1 0 0
3514 0 2 0 5.4518733690514125 20.836241038071933 11.87283279992072 -1 0 0
8014 0 2 0 4.905674382412172 19.455582409736195 15.612270264636166 0 -1 0
1634 0 1 0 6.78571617780266 18.291070291160445 14.261341545319263 -1 0 0
5800 0 2 0 5.541346870560779 16.241060661305266 12.321993120382317 0 0 0
8016 0 1 0 5.338340738257365 20.22768275554729 15.256918785369544 0 -1 0
9107 0 1 0 1.0709220470031147 16.997376007989825 11.879278651337769 0 0 0
8605 0 2 0 1.4682564834098148 19.54623411425302 13.452290916688995 0 0 0
876 0 1 0 2.9677677155674855 16.49079876991866 10.785614911905258 -1 0 0
9108 0 1 0 0.1606348583518482 18.043961390935294 12.400204732476583 0 0 0
8990 0 1 0 7.503707499411999 19.66047313837646 15.947124899757544 0 0 0
5344 0 2 0 0.1706709047722856 16.132530535784483 16.056432868311397 0 0 0
7247 0 1 0 0.5002706614077151 16.010327453559007 19.878596732723302 0 0 0
7248 0 1 0 0.70415787962115 16.99323085227617 18.89066101692068 0 0 0
1202 0 1 0 4.467360249142981 17.626011201610538 18.482530717588624 -1 0 0
1217 0 1 0 1.5951518649358998 21.356665642870503 18.677016927770392 -1 0 0
7534 0 2 0 7.731170278082063 17.153180615310344 19.12295233943658 0 0 0
1216 0 2 0 1.9720873774567331 20.90736994562888 17.896472762907106 -1 0 0
1218 0 1 0 1.523934008098796 21.462256014963437 17.198798316885096 -1 0 0
4356 0 1 0 7.537520777913378 22.00812552432335 16.276075252330372 0 0 0
1118 0 1 0 3.63455071595693 20.181873985699465 18.63551203441818 -1 -1 0
3145 0 2 0 6.2696674567675466 15.574844767535366 16.271414847075466 -1 0 0
9371 0 1 0 2.2154998730837483 18.08966680466024 16.91193285348292 0 0 0
1201 0 2 0 4.637030457518899 16.665042951467292 18.431171868251145 -1 0 0
9697 0 2 0 7.070596736447455 21.65710359778763 19.227544033743808 0 0 0
9699 0 1 0 6.954464669804451 22.015662796468945 18.281726765006194 0 0 0
7536 0 1 0 6.771578208855705 17.073906519692446 19.24012592826565 0 0 0
9698 0 1 0 6.267258282867464 21.07214934127821 19.346116366493305 0 0 0
1117 0 2 0 4.459609599520492 19.624666843326576 18.53793205077871 -1 -1 0
1203 0 1 0 5.123173962912694 16.5537552136929 17.509985135377175 -1 0 0
9372 0 1 0 1.57246211848885 19.108757820337704 17.761233297604527 0 0 0
9370 0 2 0 1.358595149999038 18.257286294368043 17.342068397412362 0 0 0
9088 0 2 0 0.4109869428927502 22.107353534032182 19.99524724556602 0 0 0
8716 0 2 0 0.30649058763767745 22.84068844542113 16.82774588164551 0 -1 0
1119 0 1 0 4.631492924507298 19.79506879255188 17.61655379316241 -1 -1 0
4354 0 2 0 7.297123514123843 22.80474307012568 16.8130743198088 0 0 0
9089 0 1 0 0.09877829162839191 22.843817847971145 19.493444069637526 0 0 0
9597 0 1 0 2.9053580359060183 20.107538010135364 71.07224887591501 0 0 -1
6120 0 1 0 4.498753183606045 16.853069978200907 72.59580351319977 0 -1 -1
9595 0 2 0 2.1287579943652997 20.622331112655846 71.17487131265173 0 0 -1