LAMMPS data file via write_data, version 4 Feb 2025, timestep = 500000, units = metal

9750 atoms
2 atom types

0 64.17 xlo xhi
0 61.75 ylo yhi
0 75 zlo zhi

Masses

1 1.007999999740698
2 15.99899999588435

Atoms # full

7809 0 1 0 0.5089503043766077 1.4961566422599522 1.8878852385904377 0 -1 0
775 0 2 0 5.484237474335657 6.130067944258428 4.3534754831101585 -2 -1 0
3631 0 2 0 2.545682038700233 4.652968519627772 0.7836295431337987 -2 0 0
777 0 1 0 5.880850236477314 5.583796672594592 5.02439165307386 -2 -1 0
7807 0 2 0 1.1678668300155441 1.189140650579961 2.568831656979666 0 -1 0
8114 0 1 0 0.9303856828094991 4.020447778589934 0.5979237841267142 -1 -1 0
7905 0 1 0 3.7328832507891443 3.727559100625547 3.714589367531792 -1 -1 0
7808 0 1 0 1.0870553375013372 1.7105222006374459 3.386417082173778 0 -1 0
4159 0 2 0 6.383462228563398 2.690702801575516 1.6871873358873066 -1 -2 0
7903 0 2 0 4.223930518838617 4.020722139906332 2.9154287894857047 -1 -1 0
3632 0 1 0 2.6433123300321033 5.654070461620401 0.5647646323977102 -2 0 0
6155 0 1 0 2.997894027814498 0.7040759601755365 2.0317610541411297 -1 -1 0
3633 0 1 0 3.063243965581686 4.549354442133028 1.627046769804649 -2 0 0
7904 0 1 0 4.660896331740803 4.772099384281814 3.310077962183591 -1 -1 0
6154 0 2 0 3.983615193097273 0.7878748098997015 1.67543141073776 -1 -1 0
4161 0 1 0 5.6371060984934305 3.0083108860145535 2.2224932351513917 -1 -2 0
954 0 1 0 7.763283692525878 4.1561403352455555 1.738150668022196 -2 -1 0
5900 0 1 0 0.03725529157535235 2.4254878416002863 5.300853157434147 -1 -1 0
4160 0 1 0 5.826223213178375 2.3584396572150417 0.9796788565407696 -1 -2 0
776 0 1 0 4.613868568701777 6.405450119039629 4.721786104688798 -2 -1 0
6156 0 1 0 4.543269173023703 0.8404420984640973 2.4842926323055163 -1 -1 0
5899 0 2 0 0.917073275829317 2.0601250158786395 5.177485825957192 -1 -1 0
3039 0 1 0 6.739587597672303 0.09741318724873338 4.183079960156341 -1 0 0
9227 0 1 0 2.690926001485304 2.8625464309601134 5.340150587172874 -1 0 0
5901 0 1 0 0.8998936806419867 1.2363390276071642 5.695759705105356 -1 -1 0
1827 0 1 0 6.6023334832222975 5.705309159942887 8.857617247213462 -1 0 0
4445 0 1 0 2.7519221238134692 6.800521701455537 9.688710499519622 -1 -1 0
8887 0 2 0 7.325415103786595 0.8826249497358859 5.933128065350939 -1 -1 0
1826 0 1 0 5.146615405898369 6.214838917666429 8.975743215162895 -1 0 0
9228 0 1 0 2.9355068828363065 4.303163371393285 5.894055769523195 -1 0 0
8877 0 1 0 2.861269810817064 6.186936096593111 7.149620573117701 -1 0 0
8876 0 1 0 1.980902637942641 6.370691751779503 5.87539531124071 -1 0 0
8875 0 2 0 2.8488497992806976 6.025450300074474 6.1537292638844505 -1 0 0
4444 0 2 0 3.068491254707672 6.788041886480057 8.78903620231591 -1 -1 0
1632 0 1 0 4.266780742610484 0.6878558322727367 7.781185629264706 -2 0 0
4564 0 2 0 0.5353160178617326 7.372366683232427 5.604260267609666 -1 -1 0
8669 0 1 0 3.8522676082492886 3.503894795415678 10.291260697639803 -1 -1 0
1825 0 2 0 5.899856486322341 5.830197061033267 9.538905028795911 -1 0 0
8670 0 1 0 5.221256706565232 4.179884044809986 9.854284784965762 -1 -1 0
8889 0 1 0 6.620636573685488 1.158368198209652 6.5384160742266095 -1 -1 0
4170 0 1 0 5.285947108839801 2.7064984599449735 8.077860426001346 -1 -1 0
4169 0 1 0 4.525690801722501 2.826877716680491 6.711966627623405 -1 -1 0
8668 0 2 0 4.764961001827 3.3301475534884633 9.932974592230543 -1 -1 0
4168 0 2 0 5.162094966686921 2.2256449425174885 7.212690764011916 -1 -1 0
9575 0 1 0 7.631667726460776 4.2399507427395475 6.600333823358192 0 0 0
9574 0 2 0 7.620049777918419 5.164830413356133 6.496804161648268 0 0 0
1742 0 1 0 0.16002218064087922 0.13870876848911934 7.57281525354414 -1 -1 0
9226 0 2 0 3.477307514031521 3.432457762592907 5.658062100861963 -1 0 0
8888 0 1 0 7.456094172660345 1.6867243426488847 5.3780452419276115 -1 -1 0
6564 0 1 0 2.1278776450324806 4.918231688525054 62.74841664800809 -1 -1 -1
3924 0 1 0 7.418179288811003 2.4405621737302443 61.60312476846655 -1 -1 -1
5518 0 2 0 0.5658594610334331 4.416247312659646 63.99542457620531 -1 0 -1
57 0 1 0 1.553740118792369 1.443682033676103 61.35308974964618 -2 -1 -1
402 0 1 0 1.5282031251077446 0.7139676953885187 63.32213066893956 -1 -1 -1
6562 0 2 0 2.5401816020767587 4.936196867038111 61.86842943727807 -1 -1 -1
55 0 2 0 1.4843791288656263 2.3407716580581006 60.99924311519884 -2 -1 -1
4046 0 1 0 2.15305940925582 6.7356469801827865 61.483041126103664 -2 -1 -1
3923 0 1 0 7.335756877114164 2.772135122216715 63.1669326895572 -1 -1 -1
6563 0 1 0 2.0712861001276424 4.223618586432409 61.36900962730896 -1 -1 -1
4384 0 2 0 4.960595653894863 7.708988573544621 63.531429472503 -2 -1 -1
4695 0 1 0 5.294058502818778 2.750895217394169 62.55951905351338 -1 -1 -1
4047 0 1 0 0.9362465617295985 7.6883730355243305 61.716370271695254 -2 -1 -1
3922 0 2 0 6.918522147624911 2.247130263603118 62.424399198427516 -1 -1 -1
4386 0 1 0 5.7142933258212745 7.659740210456478 64.18730100689925 -2 -1 -1
4385 0 1 0 4.846905095668847 6.777195928190528 63.19254805702003 -2 -1 -1
5256 0 1 0 4.448953262286944 0.7983269413135556 62.30759337851004 -1 0 -1
4693 0 2 0 4.3204753414443715 2.786530027274051 62.786345744141954 -1 -1 -1
4694 0 1 0 3.7728420397083857 3.3163934484219806 62.11607213244338 -1 -1 -1
5189 0 1 0 3.2395063161174424 1.9184880521702738 63.78111930115161 -1 0 -1
56 0 1 0 0.5551924712012895 2.545630221953413 60.89675975739443 -2 -1 -1
400 0 2 0 1.295714302841788 0.019674912072965286 62.574766359144796 -1 -1 -1
5519 0 1 0 0.0603022758271369 3.582368237288828 64.00012875685093 -1 0 -1
4045 0 2 0 1.9065204106495648 7.679091838896397 61.63378220148663 -2 -1 -1
7103 0 1 0 5.165073159849009 4.154305698183068 64.14233168762888 -1 -1 -1
5949 0 1 0 7.8951735390158815 0.6982581939867062 62.99097870127498 -1 -1 -1
7589 0 1 0 3.253589961193484 7.65362070833215 64.16267293743128 -1 0 -1
2882 0 1 0 2.4193931339903654 2.4123700635164766 68.46343058240977 -1 0 -1
8725 0 2 0 1.1408563523926734 6.905624694635935 69.014278645952 -1 -1 -1
8726 0 1 0 2.111041444250753 6.772332481822457 68.7327939185503 -1 -1 -1
6118 0 2 0 2.6331257696045824 4.871656326085967 66.04898667941855 -1 -1 -1
6120 0 1 0 2.3586015569776397 5.726945724217238 65.61633721711625 -1 -1 -1
6119 0 1 0 2.180712013494508 4.253454040114877 65.43041858286422 -1 -1 -1
2881 0 2 0 3.3119364685585255 2.0738012522213967 68.2289257467138 -1 0 -1
2883 0 1 0 3.1662748732100225 1.767280499337826 67.27799841821431 -1 0 -1
3851 0 1 0 0.6468193485312375 1.1690776816553141 67.57240997949084 -2 0 -1
3417 0 1 0 5.2402244723649805 4.400497736120573 69.23217474536865 -1 -1 -1
9037 0 2 0 6.752726523508699 7.458203612923972 65.68112409408738 -1 -1 -1
2431 0 2 0 0.778926200857216 2.0827193065166525 69.04348796011087 -1 -1 -1
4010 0 1 0 6.222810209050732 0.08869520439815022 68.11454386675094 -1 -1 -1
8339 0 1 0 0.3269191812349515 5.06963917899331 68.51077469800613 0 -1 -1
5188 0 2 0 2.5091378236288455 1.5930959861005538 64.37497143007201 -1 0 -1
3416 0 1 0 4.623928547111042 3.4855219965610256 68.07115231721052 -1 -1 -1
4009 0 2 0 6.216193755839028 1.0920449671461923 68.27379715383027 -1 -1 -1
5748 0 1 0 3.176172332653076 0.4621004977782362 68.95348552917066 -1 0 -1
7206 0 1 0 5.88438819473834 1.0877718451800178 65.45947226859678 -1 0 -1
4011 0 1 0 5.96080633269206 1.4930925789206075 67.40849539059641 -1 -1 -1
7102 0 2 0 5.119684387172698 4.238036240726114 65.12713157674855 -1 -1 -1
4739 0 1 0 4.155560916200972 6.962871542126055 69.06587557435982 -1 0 -1
4738 0 2 0 3.7872550137751766 6.762267690876256 68.19048614376305 -1 0 -1
4701 0 1 0 7.206234613494373 4.566342897317539 67.27752353489988 -1 0 -1
7104 0 1 0 4.245269572458673 4.534839333607346 65.32076299453672 -1 -1 -1
4740 0 1 0 4.102184959218055 5.880353003583361 67.90575398402329 -1 0 -1
3415 0 2 0 5.122180960366614 4.334686531707325 68.26785817542394 -1 -1 -1
7205 0 1 0 5.3156979357903955 2.5383054888453076 65.51290258162271 -1 0 -1
2432 0 1 0 0.16725305705377463 2.8165918624183237 68.9084965395697 -1 -1 -1
7204 0 2 0 5.266166730581129 1.6565611339299056 65.92531771169934 -1 0 -1
5190 0 1 0 2.9370738017095706 0.8225849496724439 64.77708982750022 -1 0 -1
3850 0 2 0 0.6584467817717697 0.711574068177189 66.70108940284499 -2 0 -1
3852 0 1 0 0.25887757710816584 1.3083862801960677 65.9962248146312 -2 0 -1
9039 0 1 0 7.047087054277638 6.532329845209897 65.89054597519157 -1 -1 -1
2433 0 1 0 0.3529539006790995 1.2630827489947936 69.44736541380952 -1 -1 -1
8727 0 1 0 0.8041219998877385 7.587194586667925 68.4079957745674 -1 -1 -1
2760 0 1 0 4.271933258107202 0.8611807885516748 74.1897910792865 -1 0 -1
2703 0 1 0 0.55750512330025 3.3811014211325032 72.38829133920947 -2 -1 -1
2461 0 2 0 5.017300760475333 5.384659786442275 74.14556469314496 -1 -1 -1
7467 0 1 0 6.136350080330665 1.685382002236708 69.80336509379057 -1 0 -1
5487 0 1 0 7.455876170581669 0.8195930658403012 71.2457528997197 -1 0 -1
6398 0 1 0 7.5885412699147095 3.2401272182080696 71.15882074884135 -1 -1 -1
5097 0 1 0 4.022385199347632 3.9968330789780113 71.86393688161165 -1 0 -1
940 0 2 0 0.23955140136370184 7.4397115796325455 71.54012724800049 -2 0 -1
5096 0 1 0 3.075074932718023 2.6131824520848377 71.72602909784094 -1 0 -1
2701 0 2 0 0.8064396347566747 2.4437972591494304 72.55886912288841 -2 -1 -1
2463 0 1 0 4.720716041618229 4.772261100463391 74.88024840403989 -1 -1 -1
2702 0 1 0 0.06247184359886849 1.879914315321184 72.33217813806357 -2 -1 -1
2759 0 1 0 4.934446247763577 2.0658887981607745 73.39778264504372 -1 0 -1
4567 0 2 0 5.732121861839633 5.368375313971753 70.85135370979694 -1 -1 -1
4568 0 1 0 5.55548175355314 6.379267954499467 70.84286837039507 -1 -1 -1
4569 0 1 0 6.394164522179373 5.414457782071997 71.55516532721755 -1 -1 -1
7465 0 2 0 6.355735959703435 1.9995681177648335 70.77259105796345 -1 0 -1
7466 0 1 0 5.564644465678164 2.3084544645852327 71.27542803267316 -1 0 -1
2758 0 2 0 5.137031274582275 1.345142525114906 74.07185856309971 -1 0 -1
4475 0 1 0 5.555580842286261 7.181116888149366 74.74417865970926 -1 -1 -1
2462 0 1 0 5.92091098301316 5.085601843758505 73.96432121680506 -1 -1 -1
5095 0 2 0 3.9686971234840853 3.0159913623106647 71.86672930418567 -1 0 -1
942 0 1 0 0.6068099576083446 7.288345039937888 70.61137943282128 -2 0 -1
941 0 1 0 0.9903511662941565 7.4087410482356075 72.17672411982917 -2 0 -1
7622 0 1 0 3.366970267515305 8.787022039146708 3.269083172169148 -1 -1 0
2122 0 2 0 4.195956971743368 12.959344155732694 4.4730976386090155 -1 -1 0
3323 0 1 0 1.1189414011169234 13.73823512755117 3.355544770908569 -2 -1 0
8696 0 1 0 7.570864060138152 9.990385805016851 4.510220466982571 -1 -1 0
3324 0 1 0 1.0991990618013827 12.482370473867093 2.4190604901445387 -2 -1 0
3322 0 2 0 0.7345202906909702 12.832849795028372 3.2175813991074795 -2 -1 0
8918 0 1 0 4.716148476179023 15.155481156732659 0.9917259347957645 -1 -1 0
177 0 1 0 1.3885941719057784 10.758625526149057 0.6987893121827301 -1 -1 0
677 0 1 0 5.962901878665839 13.740237264295033 2.092765512337846 -2 -1 0
175 0 2 0 1.9558292272757896 11.19393442189529 1.3816668589254495 -1 -1 0
176 0 1 0 2.8068616463178357 11.183035476156395 0.8051682138820668 -1 -1 0
6860 0 1 0 2.864122774350638 8.016913402110218 0.718278546795467 -1 -1 0
7653 0 1 0 2.5608504261724274 10.653620450198863 3.02776973007653 -1 0 0
7652 0 1 0 3.468448954140706 11.149730767717337 4.111069951245215 -1 0 0
7651 0 2 0 2.9727390828265263 10.30469571372258 3.8862541480597446 -1 0 0
5678 0 1 0 4.542633631764066 9.595572529023913 0.5001819964140427 -1 0 0
676 0 2 0 5.475052674035266 14.41892383596496 2.634098099235662 -2 -1 0
678 0 1 0 6.240322253164117 14.75381467333486 3.156173011963232 -2 -1 0
588 0 1 0 6.2945910172158 7.844307730486123 4.130728154125539 -2 -1 0
7621 0 2 0 3.5415863489225035 7.910372172896136 2.8650593831480955 -1 -1 0
6262 0 2 0 0.43655418559030673 8.078243883961266 2.6777641809462005 -1 -1 0
3045 0 1 0 1.5101859616784363 10.543648808170433 5.326154546091507 -1 0 0
3819 0 1 0 6.856173112033386 12.758337913602736 0.20154563347466126 -1 0 0
587 0 1 0 6.896494383366822 8.300476720252444 2.877948510726255 -2 -1 0
3818 0 1 0 7.254069538533692 11.974312419255279 1.3466229017298759 -1 0 0
586 0 2 0 6.408424366275915 8.673186088624972 3.591607842404294 -2 -1 0
2124 0 1 0 4.7655578699227545 13.216496032832023 3.7271508033834246 -1 -1 0
5677 0 2 0 4.3018027083868775 10.570710430618425 0.3856649896076203 -1 0 0
3817 0 2 0 6.423124486517097 12.243689199498812 0.9170707006187688 -1 0 0
5679 0 1 0 5.108458311159026 11.023018528031585 0.7245215710840156 -1 0 0
2123 0 1 0 3.487787408478826 13.596955245123594 4.379391586327624 -1 -1 0
6263 0 1 0 1.3782632275552258 8.150877922154045 2.4992292289512146 -1 -1 0
4474 0 2 0 5.651281037118056 7.9443815833047315 0.31866492328168666 -1 -1 0
5470 0 2 0 2.154948428250701 15.110832464062733 4.276428089590805 -1 0 0
1225 0 2 0 7.679239824165105 15.42238038736095 3.937293476777844 -1 0 0
5472 0 1 0 2.0468245001960104 15.257018222148123 5.256534737340908 -1 0 0
4476 0 1 0 6.570796995061173 7.95959335047058 0.5981165392397456 -1 -1 0
7623 0 1 0 4.288052369386905 8.06069070140922 2.2718309767658473 -1 -1 0
4565 0 1 0 0.2685057202953657 7.754004029831083 4.773177216911852 -1 -1 0
6861 0 1 0 1.409839724413204 7.7432283993377515 0.09682607126312348 -1 -1 0
6416 0 1 0 2.4153549701087043 9.37354918921989 7.161151710150419 -1 -1 0
3044 0 1 0 0.44256737883631947 10.829953642267448 6.395397346858659 -1 0 0
5154 0 1 0 6.4356700547050485 9.352024131411696 7.581437478335083 -1 0 0
6415 0 2 0 3.1726962435152477 9.272366231151508 7.845514492820842 -1 -1 0
6801 0 1 0 4.824054978133874 12.416697938460283 5.9355677663789495 -2 -1 0
4446 0 1 0 3.2742173952611475 7.7360788056955165 8.5571506196456 -1 -1 0
7672 0 2 0 2.8910083602512877 13.121050319889322 8.319662738805512 -1 0 0
3043 0 2 0 1.1080408826429076 10.18367125740377 6.1300028918097205 -1 0 0
4566 0 1 0 0.7044221416649922 8.108443834975722 6.196634316670004 -1 -1 0
6417 0 1 0 3.951075167792295 9.58378105815901 7.354514573742317 -1 -1 0
5153 0 1 0 6.277472884970411 9.799145790962326 6.088600464925657 -1 0 0
1445 0 1 0 1.6419567373273356 15.199907058522145 7.503844906217791 -1 0 0
7674 0 1 0 3.539326871171989 13.059677552776648 7.557649402348057 -1 0 0
1665 0 1 0 7.2580959925860284 12.870494922394125 7.023252270187065 -1 0 0
5152 0 2 0 5.762080524262418 9.41373105057161 6.840193565459619 -1 0 0
7673 0 1 0 2.678037149374859 12.177269587793814 8.589901451181538 -1 0 0
6799 0 2 0 5.180498454590283 12.450629925342914 6.845049015814649 -2 -1 0
6800 0 1 0 5.2653606046808745 11.520041917784487 7.093784753181518 -2 -1 0
1664 0 1 0 8.008870139532457 11.825200678066548 6.193706581943049 -1 0 0
1446 0 1 0 0.3462841821006614 15.37259141626589 6.831470645255122 -1 0 0
4345 0 2 0 3.063422079186379 11.263691636387271 57.77937751231126 -2 -1 -1
6042 0 1 0 6.856420824636841 11.297456626928922 58.714167763425316 -1 -1 -1
4347 0 1 0 2.571936080587463 10.670078964059064 58.44033198815153 -2 -1 -1
6040 0 2 0 6.136474675587981 11.92816138665819 58.79757797318895 -1 -1 -1
4346 0 1 0 4.0316242597339205 11.14425887774801 57.96219174661548 -2 -1 -1
5423 0 1 0 2.974030002619736 12.656863985778294 58.89551647226894 -2 0 -1
4382 0 1 0 0.8172764989569103 11.934516205067357 63.261235129060665 -1 -1 -1
4381 0 2 0 0.6055543818059745 11.299119943970013 62.57310550901857 -1 -1 -1
2933 0 1 0 3.474611388192283 14.501059399418246 62.314717306408674 -1 0 -1
2934 0 1 0 3.2456493987889488 13.223234299468665 63.09425377036157 -1 0 -1
2932 0 2 0 3.707069449344403 13.51642517293951 62.26233972164654 -1 0 -1
5424 0 1 0 3.170898571008283 12.992216759760435 60.44763751572987 -2 0 -1
8211 0 1 0 1.6499901606994656 10.681476649002775 61.05189787624845 -1 -1 -1
2561 0 1 0 3.729516829921487 10.598931109101096 60.761486661724994 -1 -1 -1
7600 0 2 0 7.694674968805254 14.089237356437446 60.09153697740995 -1 0 -1
2335 0 2 0 0.46697726416817614 14.541971291899467 61.03158356263975 -1 -2 -1
5422 0 2 0 2.8379746618454647 13.296728496798247 59.62581754389705 -2 0 -1
7601 0 1 0 7.26025450651028 13.469649725593323 59.45432652632586 -1 0 -1
4380 0 1 0 7.219826148635503 10.031235659934609 64.03120077977759 -1 -1 -1
8210 0 1 0 2.1295549700753704 9.172030224118254 60.71813091590347 -1 -1 -1
2562 0 1 0 4.781766448139053 11.444670873864599 61.58818558550309 -1 -1 -1
8620 0 2 0 6.523392036293126 12.720102125444079 62.32162255086957 -1 0 -1
2560 0 2 0 4.676593478087444 10.933707302052804 60.78527718744013 -1 -1 -1
2337 0 1 0 1.258196970268873 13.96052990277493 60.64038272378339 -1 -2 -1
8621 0 1 0 6.98429244063487 13.35469956106976 61.651199311843186 -1 0 -1
3069 0 1 0 5.945642218422841 8.398139585580488 61.955617597396106 -1 -1 -1
5767 0 2 0 0.7113613407790369 14.067314721774682 63.812492768705674 -1 -1 -1
4379 0 1 0 7.589105801685597 9.820482508922444 62.52720021979942 -1 -1 -1
8209 0 2 0 2.0991916096398535 10.127234020455926 60.38215146152931 -1 -1 -1
3068 0 1 0 6.108515248686536 9.658813323038146 61.31541810144824 -1 -1 -1
3067 0 2 0 6.65206545483388 8.871934679286845 61.46049753497586 -1 -1 -1
8622 0 1 0 5.686363477742353 13.128128397386256 62.64743912041317 -1 0 -1
4378 0 2 0 7.9608777797807955 10.207320523761464 63.43699458903536 -1 -1 -1
5769 0 1 0 0.7740761700425445 14.145463896034832 62.83828101593754 -1 -1 -1
7590 0 1 0 1.949810914980767 7.806305029568694 63.638774871112396 -1 0 -1
7862 0 1 0 0.306105926595403 10.141476771380066 59.13996481463973 0 -1 -1
9164 0 1 0 7.114883863984657 12.553881326729412 63.9516977696632 -1 0 -1
5177 0 1 0 3.5155505598317927 15.04699685732327 59.340542857381905 -1 -1 -1
7602 0 1 0 7.4926823852134605 15.006026139639534 59.80231519201062 -1 0 -1
6041 0 1 0 5.749916385168555 11.59177385157607 59.61543768944289 -1 -1 -1
5768 0 1 0 0.21758770098484542 14.891634499681462 64.09229413093075 -1 -1 -1
6019 0 2 0 3.816096707851856 14.607487062329918 64.97177998333407 -1 -1 -1
9038 0 1 0 7.195284062528163 8.057540600861346 66.37124996303214 -1 -1 -1
3327 0 1 0 2.589413333968413 14.044028012518252 66.80014743795041 -1 0 -1
3325 0 2 0 1.7895140091161115 13.707306854929195 67.24728044339987 -1 0 -1
3326 0 1 0 1.914173943355373 12.800180849917504 67.20243065205881 -1 0 -1
8091 0 1 0 0.021996665139516768 11.063460925082271 65.50273315614764 0 -1 -1
8089 0 2 0 0.9502305966313734 10.679650801805503 65.62801404287683 0 -1 -1
4686 0 1 0 1.1888709020270147 14.28564193588175 69.1217622936637 -1 -1 -1
8090 0 1 0 1.1158715204146001 10.06631659503861 64.86875498145021 0 -1 -1
6021 0 1 0 3.724591814024937 13.638508837729862 65.07734143877751 -1 -1 -1
7956 0 1 0 4.118862457945711 8.264716173911959 67.19828262163794 0 -1 -1
7954 0 2 0 4.2138120037066775 9.20923474554868 66.97175956357016 0 -1 -1
6225 0 1 0 2.5842123395602132 10.637439750857917 67.68807860083325 -1 -1 -1
8092 0 2 0 6.9801922995387296 9.124852171446369 67.8875103429966 0 -1 -1
3879 0 1 0 6.747132920374835 13.305514800375198 68.90209538025513 -1 -1 -1
6477 0 1 0 6.3346679485031245 13.230366548359363 66.95342816921406 -1 -1 -1
6224 0 1 0 1.6133456440457832 10.142948199946995 68.63773385347574 -1 -1 -1
714 0 1 0 3.901458544763652 10.964330994313707 69.25598925985987 -2 -1 -1
5394 0 1 0 5.720790589960232 11.139041914313612 65.21372688704903 -1 -1 -1
7955 0 1 0 4.911411805030085 9.467133167064311 67.60922298017638 0 -1 -1
5393 0 1 0 5.011422238877547 9.86907125992654 65.4121923804396 -1 -1 -1
9163 0 2 0 7.4178344486574295 12.901720418434161 64.80425928938196 -1 0 -1
6223 0 2 0 2.0551046053600386 10.957825336784154 68.40114699288162 -1 -1 -1
6476 0 1 0 5.615148674894992 14.36133778737372 67.74711203442682 -1 -1 -1
6475 0 2 0 5.719356613281553 13.359759984926614 67.64433611904823 -1 -1 -1
9165 0 1 0 7.673354452028055 13.844984240940176 64.57944390235576 -1 0 -1
8198 0 1 0 2.2835042090247386 11.734944392524074 65.11337791162167 -1 -1 -1
1244 0 1 0 0.4147594737228741 9.042621144903306 66.79269027348646 -1 -1 -1
8094 0 1 0 7.3769652663598215 8.74507285051382 68.64876777334018 0 -1 -1
712 0 2 0 4.828095742670299 11.048694202150534 69.45022583564038 -2 -1 -1
713 0 1 0 5.258446339904934 11.620991103647127 68.91237406182394 -2 -1 -1
5392 0 2 0 5.353573115042364 10.426206160765283 64.73951882529231 -1 -1 -1
8199 0 1 0 3.7846065948995675 11.426766278578043 64.74006853593806 -1 -1 -1
6020 0 1 0 4.776875777604278 14.722675014709512 64.7501168817211 -1 -1 -1
8093 0 1 0 7.453185773687504 9.909877387918549 67.55418869102725 0 -1 -1
7588 0 2 0 2.379225842991828 7.850783501000152 64.4945186947564 -1 0 -1
8197 0 2 0 3.1143896015521806 12.16913690897687 64.81066608041367 -1 -1 -1
3877 0 2 0 7.49918611926355 13.493841212232825 69.5384226406334 -1 -1 -1
3059 0 1 0 2.8298196509224 14.815880574325853 72.38275960225644 -1 -1 -1
4604 0 1 0 1.100208399716612 11.283019233889176 70.42253236420603 -1 -1 -1
4102 0 2 0 0.6518666661614726 11.814921326085106 73.4762677751307 -1 -1 -1
6048 0 1 0 7.339077781549187 15.077935967355495 72.11639845140512 -1 -1 -1
4603 0 2 0 0.3897621636913803 11.820819496314039 70.83587481759966 -1 -1 -1
5066 0 1 0 4.674426634210281 13.918475584314187 71.23307420685144 -1 -1 -1
4104 0 1 0 1.5649562775414299 12.12500990880726 73.34337565044807 -1 -1 -1
4605 0 1 0 0.43853603982366424 11.747848085907096 71.84157235923539 -1 -1 -1
3007 0 2 0 3.259348947825172 11.31779923972216 72.04588574223648 -1 -1 -1
2377 0 2 0 2.081894587229023 14.325952053494627 73.8397237991222 -1 -1 -1
6047 0 1 0 7.7458013331077975 15.211796704343248 70.64231068807784 -1 -1 -1
1192 0 2 0 6.680822462270439 10.082861964836633 73.31501061250825 -2 0 -1
1193 0 1 0 6.978277686513455 9.163212450098 73.59406540220576 -2 0 -1
5067 0 1 0 6.081989583974956 13.030011155684331 71.26249619289055 -1 -1 -1
2379 0 1 0 1.2675208585151252 14.811422815267749 74.09262853771358 -1 -1 -1
4684 0 2 0 0.8807960782091606 14.293501351479385 70.06318661607496 -1 -1 -1
8158 0 2 0 2.9577237659979594 8.591479912583216 72.35148589612984 0 -1 -1
3008 0 1 0 3.7627238292860996 11.943262964431865 72.54696521848032 -1 -1 -1
4685 0 1 0 0.748787204844226 13.380732753620682 70.34866438792349 -1 -1 -1
2403 0 1 0 7.751015453578145 12.059706363116474 70.80497085875771 -1 -1 -1
6472 0 2 0 7.342525431169906 14.450482024219998 74.07817252974668 -1 -1 -1
3009 0 1 0 3.6705940946196707 11.217717795711678 71.18107216310547 -1 -1 -1
6274 0 2 0 4.895712192322819 7.967225731437955 70.47446124068209 -1 -1 -1
6276 0 1 0 5.1455649731683115 8.880279839763643 70.23970057253614 -1 -1 -1
1194 0 1 0 5.807823061758991 10.193810895266092 73.7280153852704 -2 0 -1
2402 0 1 0 7.363033315869889 10.989924422967073 71.98529839908329 -1 -1 -1
5065 0 2 0 5.462649212435575 13.596502737752017 71.72646843036723 -1 -1 -1
8160 0 1 0 3.0797324000678707 9.522940916038474 72.59532429181073 0 -1 -1
2378 0 1 0 2.748177733840607 14.568811737895166 74.53068192226873 -1 -1 -1
6275 0 1 0 4.347640522974244 8.009690275474028 71.29977200676022 -1 -1 -1
8159 0 1 0 2.9379408168548315 8.164547000874139 73.27051746085193 0 -1 -1
6859 0 2 0 2.364515118304335 7.7679017603230625 74.91532931831908 -1 -1 -1
6474 0 1 0 6.418892247970509 14.83309371117194 74.12056490276153 -1 -1 -1
3060 0 1 0 2.4014060110453035 14.917316504226651 70.79945799233629 -1 -1 -1
4103 0 1 0 0.16138882063476956 12.51997199155329 73.9674020092152 -1 -1 -1
6473 0 1 0 7.802564258561433 14.740145257654452 74.8881383289813 -1 -1 -1
3058 0 2 0 3.096096976670343 15.193011537331497 71.44800078028156 -1 -1 -1
1095 0 1 0 2.762065766487015 21.494046938166704 2.4348375656204353 -1 -1 0
4923 0 1 0 2.9580221358168823 17.732985597315622 2.6997869138888118 -1 -1 0
2197 0 2 0 2.426042679551591 20.74583121477313 3.8229863009856744 -1 -1 0
693 0 1 0 4.042042672569003 23.070324843276023 4.691985180243212 -1 -1 0
4921 0 2 0 3.4256945526870983 18.180483632628107 3.456924107866217 -1 -1 0
4922 0 1 0 2.8053387978057596 18.896904216734367 3.7093528902734634 -1 -1 0
1093 0 2 0 2.9696982510586167 21.87344896772901 1.5601477212518782 -1 -1 0
764 0 1 0 0.4475094571724875 16.245859580409284 1.6675295201620146 -1 -1 0
2199 0 1 0 1.653493432090125 21.214659414583686 4.205353841542818 -1 -1 0
1227 0 1 0 7.0998016782078395 16.108022717993975 4.346603639583684 -1 0 0
1094 0 1 0 2.465591610781386 21.304912894098 0.9353881285817953 -1 -1 0
865 0 2 0 7.424627382477389 17.61421925042767 0.888219786667818 -2 -1 0
765 0 1 0 0.2673895758153377 17.11631575743805 2.9058520780717694 -1 -1 0
691 0 2 0 4.403744936680535 22.24843018118636 5.052231226062351 -1 -1 0
7457 0 1 0 4.929252126319788 22.12223410599073 1.3135427205886443 -1 0 0
2198 0 1 0 3.1286100414256808 21.132475473862804 4.370369292364917 -1 -1 0
7458 0 1 0 6.501226115331383 21.805246036932047 1.5762861928583298 -1 0 0
763 0 2 0 0.7553838922053449 17.09477764330793 2.055262887857276 -1 -1 0
8754 0 1 0 6.216597058789361 18.51880456284095 4.48739030484125 0 -1 0
6239 0 1 0 7.472405047413747 19.455244130402537 1.850686030993607 -1 -1 0
6238 0 2 0 7.235377305779106 20.161626158883355 2.520781736008841 -1 -1 0
7456 0 2 0 5.839536717107601 22.429563411380204 1.2073555505618807 -1 0 0
692 0 1 0 5.162631313205621 22.035512297689895 4.489586360507079 -1 -1 0
8753 0 1 0 5.026526607024966 17.589006710210622 4.3961431689557875 0 -1 0
8919 0 1 0 4.407959875659989 16.475403456008983 0.2941765459829012 -1 -1 0
5471 0 1 0 2.3334028962704547 16.003113455209906 3.9277777192350953 -1 0 0
8752 0 2 0 5.912275117524868 17.654998252630584 4.81740708794708 0 -1 0
8917 0 2 0 4.311435673314736 15.539643320197506 0.14758225442992454 -1 -1 0
3164 0 1 0 0.15208791857270398 18.402346106482362 0.5949534178957421 -1 -1 0
1444 0 2 0 1.2374917683769553 15.792424347676727 6.843595072765004 -1 0 0
6733 0 2 0 1.5794722642487489 19.865671882870735 58.6325241747402 -1 -1 -1
4765 0 2 0 4.0496819933781065 20.03706043624021 58.271987662339725 -1 -1 -1
5086 0 2 0 5.19368872593801 22.879769136063203 57.53633137405183 -2 -1 -1
4767 0 1 0 4.443127231760334 20.88651396759799 58.01049957090865 -1 -1 -1
5088 0 1 0 5.8149525596195115 23.042027031531653 56.80468834205191 -2 -1 -1
6735 0 1 0 1.0701723978376825 19.743945330556265 57.79235671452705 -1 -1 -1
6734 0 1 0 2.6049655180886497 19.951302929086264 58.32308010286862 -1 -1 -1
7774 0 2 0 0.3278736946053237 17.762330179240987 62.26774489637975 -1 0 -1
6626 0 1 0 1.9243097472009687 21.585611465068418 61.056817906117686 -1 -1 -1
6625 0 2 0 2.8609870941933844 21.55556994998364 61.29834943197224 -1 -1 -1
7775 0 1 0 0.6984682528399824 17.879570085270288 61.36873311115395 -1 0 -1
9598 0 2 0 3.8586634073852437 18.85602913559557 60.98562869631139 -1 -1 -1
7245 0 1 0 3.327978498308372 16.042591304890035 61.20736969529578 -1 -1 -1
8459 0 1 0 7.70557366368715 21.773384331266247 62.43842023242104 -1 -1 -1
7244 0 1 0 2.1308123728020476 16.321827664942482 62.08065132590704 -1 -1 -1
6852 0 1 0 1.5434456373077885 18.317859438375496 59.25852153733295 -1 -1 -1
9599 0 1 0 4.57029014659138 18.768508991732453 61.672860035116884 -1 -1 -1
9600 0 1 0 3.3241479046626634 18.07692284276937 61.13505215996106 -1 -1 -1
6631 0 2 0 4.063816163142313 21.164749329300285 63.76917256295364 -1 -2 -1
6632 0 1 0 3.8665910439720026 21.859171578035077 63.09375516978627 -1 -2 -1
7243 0 2 0 3.0363283984267357 16.07947330525567 62.16361158599187 -1 -1 -1
8458 0 2 0 7.432028351468607 22.677090690200483 62.253307314944415 -1 -1 -1
6167 0 1 0 7.597280250611564 20.070271471790633 59.14586471537604 -1 -1 -1
5176 0 2 0 3.775679253042852 16.003901741082622 59.405457738340154 -1 -1 -1
6627 0 1 0 3.199020249380259 20.624420747811378 61.11050958537043 -1 -1 -1
6838 0 2 0 5.3136182072111975 22.840376480163915 60.387304099323856 -1 -1 -1
7667 0 1 0 7.42472959645428 19.80844573922565 63.08452404699375 -1 0 -1
6840 0 1 0 4.382803985693374 22.46228218272278 60.46392827515142 -1 -1 -1
8460 0 1 0 6.5920612387082205 22.60049519638629 61.74201626042067 -1 -1 -1
6168 0 1 0 6.865131330959055 20.677041104541768 60.38273587112291 -1 -1 -1
1023 0 1 0 6.812426234181697 17.66153554334064 59.98099723693733 -2 -1 -1
1021 0 2 0 6.58876144005315 16.728130188767643 59.97341660178273 -2 -1 -1
6882 0 1 0 5.176799867001456 19.681193645490744 63.543579648724524 -1 -1 -1
718 0 2 0 5.917531665547365 16.09511961208034 62.83256545499184 -1 -1 -1
6166 0 2 0 6.806814634278804 20.006985809399804 59.696577188226435 -1 -1 -1
6881 0 1 0 5.767611253134067 18.213637295060984 63.287525063295746 -1 -1 -1
6880 0 2 0 5.737238530589862 19.117903831479907 62.933531148881684 -1 -1 -1
719 0 1 0 4.917231588575499 15.993981364574585 62.84832202831704 -1 -1 -1
720 0 1 0 6.120650332970211 16.496932685766737 61.90278114108385 -1 -1 -1
1022 0 1 0 5.689105532675684 16.673011801164318 59.59754468909322 -2 -1 -1
320 0 1 0 7.020694612545877 16.01265270327504 63.914027110040045 -1 -1 -1
6850 0 2 0 1.5849271521175332 17.50022892040355 59.765973596061094 -1 -1 -1
6851 0 1 0 0.8117623054083811 17.060696079024094 59.32187359906294 -1 -1 -1
6839 0 1 0 5.546715331785354 22.57149679232785 59.40517138539273 -1 -1 -1
7776 0 1 0 0.3898604563534028 18.67503106715067 62.53874552261669 -1 0 -1
5178 0 1 0 2.9545773966443973 16.523481684988067 59.290008878016174 -1 -1 -1
8971 0 2 0 0.18919699774246754 20.998427713427716 61.31394528825478 0 -1 -1
1715 0 1 0 0.8624123885114084 21.087600755280654 63.8552083203812 -1 0 -1
4766 0 1 0 4.402450504454769 19.974993296895196 59.17290549523061 -1 -1 -1
1716 0 1 0 2.3745540141317054 20.76799715656162 64.15720541764614 -1 0 -1
1625 0 1 0 1.752254643378031 17.53589802371131 64.27834177321452 -1 -1 -1
4035 0 1 0 4.549974789792537 18.62149202851983 66.0286404197256 -1 -1 -1
8404 0 2 0 0.558445025256522 17.14512820402051 67.15278777970236 -1 -1 -1
8452 0 2 0 1.4808176730032658 20.305112180747674 67.11207995957395 -1 -1 -1
4034 0 1 0 3.662532808610383 17.584331916797986 65.30086475432661 -1 -1 -1
8562 0 1 0 5.298729242924429 16.73628261263503 68.45607746995279 -1 -1 -1
4033 0 2 0 4.595350070638858 17.782752547639436 65.51013886278484 -1 -1 -1
1076 0 1 0 7.240329403557754 16.273205526016742 68.40824570922904 -2 -1 -1