LAMMPS (4 Feb 2025)
OMP_NUM_THREADS environment is not set. Defaulting to 1 thread. (src/comm.cpp:99)
  using 1 OpenMP thread(s) per MPI task
# LAMMPS script for running NVT simulation

units       metal
dimension   3
boundary    p p p
atom_style  full
atom_modify map yes

newton      on

read_data   ../start.lammps-data
Reading data file ...
  orthogonal box = (0 0 0) to (153.39197 147.60149 151.07317)
  16 by 8 by 8 MPI processor grid
  reading atoms ...
  11640 atoms
  reading velocities ...
  11640 velocities
Finding 1-2 1-3 1-4 neighbors ...
  special bond factors lj:    0        0        0       
  special bond factors coul:  0        0        0       
     0 = max # of 1-2 neighbors
     0 = max # of 1-3 neighbors
     0 = max # of 1-4 neighbors
     1 = max # of special neighbors
  special bonds CPU = 6.028 seconds
  read_data CPU = 6.204 seconds

pair_style  symmetrix/mace
pair_coeff  * * ../../../00-common/models/ch2o-dens-inv_swa-1-6-8.json C H O
Loading MACE model from '../../../00-common/models/ch2o-dens-inv_swa-1-6-8.json' ... success
  mapping LAMMPS type 1 (C) to MACE type 1
  mapping LAMMPS type 2 (H) to MACE type 0
  mapping LAMMPS type 3 (O) to MACE type 2

variable t equal step

group graphene type 1
8640 atoms in group graphene
group H2O type 2 3
3000 atoms in group H2O

thermo 1000

######### NVT equilibration for 80 ps #############

dump DUMP1 all atom 100 nvt_equi.lammpstrj
timestep 0.001
fix NVT1 graphene nvt temp 300 300 0.1
fix NVT2 H2O nvt temp 300 300 0.1
run 80000
Neighbor list info ...
  update: every = 1 steps, delay = 0 steps, check = yes
  max neighbors/atom: 2000, page size: 100000
  master list distance cutoff = 8
  ghost atom cutoff = 8
  binsize = 4, bins = 39 37 38
  1 neighbor lists, perpetual/occasional/extra = 1 0 0
  (1) pair symmetrix/mace, perpetual
      attributes: full, newton on
      pair build: full/bin
      stencil: full/bin/3d
      bin: standard
Per MPI rank memory allocation (min/avg/max) = 5.921 | 6.239 | 8.664 Mbytes
   Step          Temp          E_pair         E_mol          TotEng         Press     
         0   78.173347     -1810199        0             -1810081.4      1025.2434    
      1000   88.53646      -1810192.5      0             -1810059.3      662.02013    
      2000   215.49901     -1810063.1      0             -1809738.9     -696.75015    
      3000   305.13073     -1809963.5      0             -1809504.4     -754.95495    
      4000   310.59069     -1809939.8      0             -1809472.5     -881.52193    
      5000   296.97713     -1809932.9      0             -1809486.1     -775.3851     
      6000   294.36631     -1809931.1      0             -1809488.2     -638.23044    
      7000   294.18939     -1809927.1      0             -1809484.5     -658.44306    
      8000   305.71839     -1809932.1      0             -1809472.2     -383.75757    
      9000   309.94604     -1809899.8      0             -1809433.5     -538.73666    
     10000   300.43004     -1809922        0             -1809470       -477.82793    
     11000   298.38298     -1809926.1      0             -1809477.2     -322.06886    
     12000   296.37327     -1809929        0             -1809483.1     -360.89894    
     13000   301.24264     -1809904.8      0             -1809451.6     -305.70897    
     14000   301.46497     -1809919.7      0             -1809466.1     -277.91413    
     15000   298.16976     -1809917.8      0             -1809469.2     -276.91802    
     16000   301.05104     -1809896.7      0             -1809443.8     -201.1983     
     17000   292.0869      -1809903        0             -1809463.6     -114.37394    
     18000   297.87744     -1809906.8      0             -1809458.7     -92.379058    
     19000   298.21642     -1809905.9      0             -1809457.3     -164.95191    
     20000   298.74379     -1809908.1      0             -1809458.7     -90.97073     
     21000   303.54263     -1809902.7      0             -1809446       -68.248638    
     22000   297.85202     -1809902.3      0             -1809454.2      41.572068    
     23000   299.88295     -1809906.4      0             -1809455.2      48.014378    
     24000   302.61553     -1809902.1      0             -1809446.9      132.27181    
     25000   298.65921     -1809902.3      0             -1809453        64.374758    
     26000   303.45218     -1809906.7      0             -1809450.2      127.2323     
     27000   300.2044      -1809896.8      0             -1809445.2      72.366193    
     28000   297.80392     -1809911.2      0             -1809463.2      107.55431    
     29000   303.73946     -1809903.1      0             -1809446.2      49.57384     
     30000   301.4097      -1809900.9      0             -1809447.4      84.126904    
     31000   295.29266     -1809910.9      0             -1809466.7      124.11956    
     32000   303.5212      -1809903.6      0             -1809446.9      27.578436    
     33000   301.41396     -1809910.4      0             -1809457        34.25608     
     34000   300.35136     -1809905.8      0             -1809454        49.055177    
     35000   303.42105     -1809910.6      0             -1809454.1      112.16878    
     36000   299.90576     -1809905.4      0             -1809454.2      98.081468    
     37000   299.31263     -1809902        0             -1809451.7      117.34397    
     38000   299.60857     -1809906.5      0             -1809455.7      72.559991    
     39000   300.6278      -1809912.2      0             -1809459.9      134.65441    
     40000   301.35546     -1809903.4      0             -1809450        145.00622    
     41000   298.76566     -1809909        0             -1809459.5      106.49936    
     42000   297.5548      -1809912        0             -1809464.4      95.580109    
     43000   302.48961     -1809906.8      0             -1809451.7      72.575318    
     44000   299.0426      -1809908.1      0             -1809458.2      73.349329    
     45000   297.96711     -1809915.3      0             -1809467        109.92644    
     46000   300.3966      -1809906.1      0             -1809454.2      134.69445    
     47000   301.5756      -1809905.3      0             -1809451.6      136.57117    
     48000   296.78513     -1809910.9      0             -1809464.4      95.912004    
     49000   300.48037     -1809914.8      0             -1809462.7      30.214872    
     50000   298.93792     -1809913        0             -1809463.3      61.016836    
     51000   300.87599     -1809912.1      0             -1809459.5      77.990975    
     52000   299.70045     -1809914.2      0             -1809463.3      146.87035    
     53000   300.84171     -1809912.3      0             -1809459.7      165.23785    
     54000   296.12141     -1809906.5      0             -1809461        132.37473    
     55000   297.80571     -1809916.3      0             -1809468.2      98.24193     
     56000   297.7692      -1809906.4      0             -1809458.4      50.194561    
     57000   301.11536     -1809912        0             -1809459        88.987071    
     58000   302.33223     -1809910.3      0             -1809455.4      83.611477    
     59000   297.41614     -1809914.2      0             -1809466.8      40.172726    
     60000   299.99545     -1809908.4      0             -1809457        112.32825    
     61000   298.5229      -1809911.5      0             -1809462.4      109.83528    
     62000   302.89758     -1809910.9      0             -1809455.2      51.476788    
     63000   299.10689     -1809906.2      0             -1809456.2      16.227341    
     64000   299.44494     -1809911.6      0             -1809461.1      51.671432    
     65000   297.20373     -1809918.8      0             -1809471.7      140.05885    
     66000   299.91263     -1809909.1      0             -1809457.9      138.20032    
     67000   297.14987     -1809910.7      0             -1809463.6      37.05109     
     68000   300.9913      -1809919        0             -1809466.2      62.29665     
     69000   303.26142     -1809910.2      0             -1809454        93.260536    
     70000   298.99302     -1809912.4      0             -1809462.6      80.415215    
     71000   296.40439     -1809908.6      0             -1809462.6      44.022838    
     72000   299.40764     -1809912.8      0             -1809462.4      87.93562     
     73000   300.05252     -1809913.7      0             -1809462.3      83.761389    
     74000   303.197       -1809920.9      0             -1809464.7      74.776814    
     75000   301.36091     -1809909.9      0             -1809456.6      22.048796    
     76000   300.25146     -1809913.9      0             -1809462.2      52.334504    
     77000   297.49927     -1809913        0             -1809465.4      74.121212    
     78000   301.40898     -1809908.7      0             -1809455.2      114.33035    
     79000   299.11452     -1809913.9      0             -1809463.9      70.872228    
     80000   298.3948      -1809918.6      0             -1809469.6      44.622075    
Loop time of 57760.8 on 1024 procs for 80000 steps with 11640 atoms

Performance: 0.120 ns/day, 200.558 hours/ns, 1.385 timesteps/s, 16.122 katom-step/s
100.0% CPU use with 1024 MPI tasks x 1 OpenMP threads

MPI task timing breakdown:
Section |  min time  |  avg time  |  max time  |%varavg| %total
---------------------------------------------------------------
Pair    | 1265.2     | 5618.8     | 22251      |6233.7 |  9.73
Bond    | 0.0049431  | 0.0083258  | 0.02515    |   3.1 |  0.00
Neigh   | 0.038473   | 0.15041    | 1.1848     |  44.3 |  0.00
Comm    | 51.599     | 2045.9     | 6321.3     |3482.1 |  3.54
Output  | 1.8424     | 6.4057     | 11.501     | 115.2 |  0.01
Modify  | 32737      | 50081      | 56240      |2523.5 | 86.70
Other   |            | 8.304      |            |       |  0.01

Nlocal:        11.3672 ave         354 max           0 min
Histogram: 894 75 38 5 1 2 2 1 0 6
Nghost:        93.0957 ave        1415 max           0 min
Histogram: 766 120 90 20 11 11 0 1 2 3
Neighs:              0 ave           0 max           0 min
Histogram: 1024 0 0 0 0 0 0 0 0 0
FullNghs:      1226.98 ave       66675 max           0 min
Histogram: 1002 7 3 1 2 2 1 0 3 3

Total # of neighbors = 1256428
Ave neighs/atom = 107.94055
Ave special neighs/atom = 0
Neighbor list builds = 3823
Dangerous builds = 0

write_restart nvt_equi.restart.*
System init for write_restart ...
write_data nvt_equi_final.lammps-data
System init for write_data ...

Total wall time: 16:03:07
