LAMMPS data file via write_data, version 4 Feb 2025, timestep = 80000, units = metal

11640 atoms
3 atom types

0 153.391968 xlo xhi
0 147.6014900272108 ylo yhi
0 151.07316997686289 zlo zhi

Masses

1 12.01099999691024
2 1.007999999740698
3 15.99899999588435

Atoms # full

4120 0 1 0 5.5927749191094955 3.5526128371504444 140.8598768757816 1 0 0
4119 0 1 0 4.135165775077479 3.5788392489694045 140.68682506400074 1 0 0
4115 0 1 0 4.099465030156079 1.075972551814068 140.6522548808545 1 0 0
4116 0 1 0 5.5015251536462895 1.0780350861732877 140.78230488104506 1 0 0
4114 0 1 0 3.431875834726113 2.3534619535452337 140.70741701185702 1 0 0
4137 0 1 0 1.965476955027154 17.190987025494973 141.1908639586411 1 0 0
4113 0 1 0 1.9792244773042533 2.383162766455425 140.70516289218043 1 0 0
4140 0 1 0 5.584349920186577 15.931095683174266 141.07575751733162 1 0 0
3876 0 1 0 1.2891630437846573 1.1799953071961247 140.52570793569558 1 0 0
3880 0 1 0 1.230780579317848 3.6070892328165516 140.72767277083963 1 0 0
4353 0 1 0 6.246148924049185 2.3476620858692683 140.92482987241792 1 0 0
4133 0 1 0 1.9469026669782872 14.727611968362963 141.29000265074913 1 0 0
4354 0 1 0 7.663578736283946 2.3274250938075243 140.96171229615868 1 0 0
3900 0 1 0 1.25030162605351 15.954078632262972 141.33275860467106 1 0 0
4135 0 1 0 4.136214919587313 13.464445888896702 141.44649586929873 1 0 0
4374 0 1 0 7.720389145282249 14.723906715323722 141.14844613888087 1 0 0
4373 0 1 0 6.308128810998177 14.669327870368155 141.18181000310804 1 0 0
4379 0 1 0 8.416953457157705 15.938762520746783 141.06222907385842 1 0 0
4359 0 1 0 8.394793286136794 3.5767732486543884 140.98469348894412 1 0 0
4355 0 1 0 8.3590893102018 1.1074957490369457 140.86147127962528 1 0 0
4124 0 1 0 5.544561393536469 6.079780174972539 140.96692776189553 1 0 0
4123 0 1 0 4.158043022875709 6.097088363941156 140.87098715126004 1 0 0
4118 0 1 0 3.432554353622296 4.839315256247186 140.6924796722435 1 0 0
4122 0 1 0 3.429489397673242 7.33483629603986 140.94505335167588 1 0 0
4128 0 1 0 5.543073404607426 8.562352360400862 141.17832319472234 1 0 0
4127 0 1 0 4.114873573064857 8.525094464217304 141.14987324063827 1 0 0
4117 0 1 0 1.972969718775426 4.8778865939839635 140.7102979203626 1 0 0
4121 0 1 0 2.002024190664852 7.361354659655269 140.9009385076184 1 0 0
3884 0 1 0 1.2634278435869444 6.098654623389072 140.70420563436042 1 0 0
3888 0 1 0 1.2159039126032611 8.54317477862202 140.99328053888487 1 0 0
4361 0 1 0 6.298735893227404 7.314800978058343 141.1208035323731 1 0 0
4357 0 1 0 6.246804468830396 4.823573534599049 140.85577523018281 1 0 0
4362 0 1 0 7.717096954909551 7.260856781622303 141.18606494031403 1 0 0
4358 0 1 0 7.702905011070535 4.809553369958063 141.01881020129505 1 0 0
4139 0 1 0 4.178501310039978 15.95053555467201 141.2536264844826 1 0 0
4378 0 1 0 7.685967107055304 17.17444163622005 140.93407438431072 1 0 0
4363 0 1 0 8.40382332325158 6.06709498897686 141.12048780343366 1 0 0
4377 0 1 0 6.266577827875793 17.18750222660719 140.97433275632935 1 0 0
4367 0 1 0 8.420001938485964 8.547456999552649 141.28491571152702 1 0 0
4134 0 1 0 3.4267617279586626 14.75759494708225 141.37099394162027 1 0 0
4131 0 1 0 4.109819292453705 10.979938176724758 141.35871555884765 1 0 0
4130 0 1 0 3.3999955774699133 12.22872197505358 141.46610876036678 1 0 0
4126 0 1 0 3.40283246234267 9.715167515184431 141.27516261492212 1 0 0
4132 0 1 0 5.569432279885664 10.996365962821992 141.3735639451224 1 0 0
4136 0 1 0 5.577043936035777 13.449590592749159 141.42520682044068 1 0 0
4129 0 1 0 2.0043749090602567 12.23210241098597 141.35604935436166 1 0 0
4125 0 1 0 1.9581698889060357 9.78058947800715 141.24194292762797 1 0 0
3892 0 1 0 1.2360400170308743 11.016471082595423 141.26814828056337 1 0 0
3896 0 1 0 1.2225769186185511 13.476646203116939 141.2642986195612 1 0 0
4369 0 1 0 6.291813435622697 12.222043471472254 141.3947319130978 1 0 0
4365 0 1 0 6.2383925274790935 9.76671425429356 141.2581038422802 1 0 0
4366 0 1 0 7.716426428113883 9.753569116907332 141.27497855713065 1 0 0
4370 0 1 0 7.687626113754568 12.203745344454127 141.23941901929172 1 0 0
4371 0 1 0 8.458795069911845 10.984916369257823 141.17753948821326 1 0 0
4375 0 1 0 8.43406736566277 13.467630771136266 141.14417397041333 1 0 0
4138 0 1 0 3.418094718672991 17.191962648909282 141.17816806829563 1 0 0
4383 0 1 0 8.433015266106219 18.406191529741786 140.80979390974687 1 0 0
4143 0 1 0 4.122917162644245 18.4269135290942 140.9806759931755 1 0 0
4144 0 1 0 5.550556898042429 18.416549760890316 140.91387065537796 1 0 0
3904 0 1 0 1.239053154941793 18.43273560476298 141.14141819967355 1 0 0
4148 0 1 0 5.535040955529479 20.87651744095298 140.64632674873647 1 0 0
4167 0 1 0 4.165587119311875 33.24913392701628 139.83846120952816 1 0 0
4147 0 1 0 4.1117692994702635 20.85955291050409 140.77885881532865 1 0 0
4171 0 1 0 4.174884949428832 35.71309459617469 139.72532183176756 1 0 0
4146 0 1 0 3.380789132573081 22.120041278199974 140.8627860770752 1 0 0
4142 0 1 0 3.4208665856169205 19.64482113680497 140.9276236317343 1 0 0
4145 0 1 0 1.9709530482159276 22.127814677624656 140.97176780051134 1 0 0
4141 0 1 0 1.9806287751716782 19.666362042772057 141.1563781594985 1 0 0
3908 0 1 0 1.282947832479775 20.90577455690484 141.09617354708357 1 0 0
4172 0 1 0 5.581205321971264 35.71903785980194 139.86654302883878 1 0 0
4381 0 1 0 6.283835866827795 19.689212419331884 140.7879808492269 1 0 0
4385 0 1 0 6.274853986589655 22.16639334144232 140.58061723372043 1 0 0
4382 0 1 0 7.699435258304183 19.677651994801273 140.6992756847829 1 0 0
4386 0 1 0 7.713377804947537 22.11018773893236 140.54904608907793 1 0 0
4387 0 1 0 8.442765603331614 20.86273400172239 140.50966848210027 1 0 0
4168 0 1 0 5.560111097922265 33.323644945227755 139.99485035401366 1 0 0
4162 0 1 0 3.4030336792151425 31.975656264990235 139.91615113803866 1 0 0
4402 0 1 0 7.707110500422353 31.98380692716255 140.21089486363965 1 0 0
4411 0 1 0 8.471744163394877 35.71171317032136 140.00517436186723 1 0 0
4407 0 1 0 8.351487696546522 33.25186148832131 140.2433160255375 1 0 0
4152 0 1 0 5.519230226462875 23.34947576212806 140.4888609479564 1 0 0
4156 0 1 0 5.54712887546104 25.76690659999204 140.36712848418438 1 0 0
4151 0 1 0 4.109034815189644 23.345954675230402 140.66910104903621 1 0 0
4155 0 1 0 4.134639642818112 25.795916864969044 140.50783517232256 1 0 0
4150 0 1 0 3.3787572642890558 24.583319069958986 140.69479813431946 1 0 0
4154 0 1 0 3.4160447746808194 27.061090965431053 140.5090709290678 1 0 0
4149 0 1 0 1.9793742842468638 24.62416767393355 140.7598303511257 1 0 0
4153 0 1 0 2.003649781175424 27.109117585535635 140.4721505179648 1 0 0
3916 0 1 0 1.2704738079189242 25.88356845405156 140.59545836324233 1 0 0
3912 0 1 0 1.2539073959172786 23.398313520742047 140.94702657996493 1 0 0
4389 0 1 0 6.297747178243769 24.56176075521574 140.3736137791784 1 0 0
4390 0 1 0 7.706191194567375 24.53937744735314 140.24633538072723 1 0 0
4391 0 1 0 8.459070580750259 23.350440677481245 140.39687810920933 1 0 0
4395 0 1 0 8.445490563289868 25.756555659321027 140.16098330180787 1 0 0
4165 0 1 0 2.001916987773328 34.54613207993776 139.87915270237656 1 0 0
3928 0 1 0 1.309388894363138 33.29458393715412 139.9652242025398 1 0 0
4405 0 1 0 6.285164399314135 34.561216961824904 139.9856753452851 1 0 0
4401 0 1 0 6.275419867640996 31.99058241100874 140.10057691325682 1 0 0
4393 0 1 0 6.269963320387085 27.019452368912237 140.18547003043855 1 0 0
4394 0 1 0 7.69782323023305 27.018719796952798 140.1015594074701 1 0 0
4160 0 1 0 5.547330123811726 28.28773840107188 140.22350535029744 1 0 0
4164 0 1 0 5.5454566911827055 30.777122156490716 140.11498589129403 1 0 0
4159 0 1 0 4.169698959271196 28.264323552345722 140.31297518375612 1 0 0
4163 0 1 0 4.127749063007313 30.748512511351233 140.0075750100995 1 0 0
4158 0 1 0 3.43296756287892 29.480661779336526 140.15287933937952 1 0 0
4157 0 1 0 2.0369185478938783 29.523956602859737 140.13105231522457 1 0 0
3920 0 1 0 1.32725903869622 28.318855424684752 140.39570300821367 1 0 0
3924 0 1 0 1.2916347969175692 30.77736453166494 139.9370681471598 1 0 0
4397 0 1 0 6.295705159035986 29.554801567592545 140.13302126552443 1 0 0
4398 0 1 0 7.719239474432782 29.505292642273147 140.00918962430185 1 0 0
4399 0 1 0 8.398692405612968 28.24222219997522 139.93360171321507 1 0 0
4403 0 1 0 8.430761537123896 30.7583110195221 140.15963763555885 1 0 0
3932 0 1 0 1.272402440893979 35.738478305882545 139.7985073678251 1 0 0
4161 0 1 0 1.9744624116203988 32.028141900188594 139.86330594304613 1 0 0
4406 0 1 0 7.725781030168044 34.52059873740778 140.03664859958198 1 0 0
4166 0 1 0 3.4317571211097717 34.49886520798258 139.75997648736697 1 0 0
4192 0 1 0 5.583172877207212 47.985943332341954 138.74393078516906 1 0 0
4191 0 1 0 4.155323693213626 47.98824506419877 138.83400515475913 1 0 0
4190 0 1 0 3.49221917740462 49.22849632657859 138.77319075769356 1 0 0
4189 0 1 0 2.0609992472219227 49.20005334263726 138.68838310458912 1 0 0
3952 0 1 0 1.2833323265295757 47.99497382538639 138.78305113105424 1 0 0
4429 0 1 0 6.348615940538067 49.203008407496604 138.54776806171074 1 0 0
4430 0 1 0 7.7535856166174355 49.22819727478137 138.4531514149965 1 0 0
4431 0 1 0 8.449266678554762 47.9746469276763 138.54581295534652 1 0 0
4417 0 1 0 6.285465415487677 41.898325238473575 139.41540666290308 1 0 0
4423 0 1 0 8.44052395943332 43.071449958891726 139.09849256689748 1 0 0
4426 0 1 0 7.690362935942056 46.806370426270874 138.63831473842697 1 0 0
4435 0 1 0 8.462160989090698 50.45848607207389 138.28966222924092 1 0 0
4422 0 1 0 7.699517513950153 44.32474625469736 138.96539064968286 1 0 0
4200 0 1 0 5.567455259958241 52.93651918016193 138.1907350420106 1 0 0
4198 0 1 0 3.402744378199879 54.15051036694154 138.12735925220764 1 0 0
4194 0 1 0 3.4441891948661234 51.675577672253134 138.48353237738365 1 0 0
4196 0 1 0 5.5847974893084 50.47840400618795 138.48079382401153 1 0 0
4195 0 1 0 4.190452808022326 50.48337989839915 138.60609246738164 1 0 0
4199 0 1 0 4.136951390545816 52.880516984115275 138.21359965876817 1 0 0
4197 0 1 0 2.036605323118788 54.16275675990449 138.21955272761272 1 0 0
4193 0 1 0 2.0049048490164134 51.70212136575354 138.52790911535553 1 0 0
3956 0 1 0 1.3131103487374276 50.419802621930515 138.65490632766546 1 0 0
3960 0 1 0 1.3100125984448432 52.92204742944476 138.37525169003294 1 0 0
4437 0 1 0 6.304906370156451 54.15288930148966 138.02157388807828 1 0 0
4433 0 1 0 6.2997726171397055 51.70130834725088 138.31692225921694 1 0 0
3944 0 1 0 1.2829988385044042 43.14557034079584 139.37180272692927 1 0 0
4185 0 1 0 1.979105851829009 46.76743364018042 138.80889967973198 1 0 0
4439 0 1 0 8.39094569607911 52.940168015072004 138.04435381054842 1 0 0
4427 0 1 0 8.422544833584938 45.568712618659276 138.784497947163 1 0 0
4438 0 1 0 7.687068179450812 54.168501104256734 137.93059927071158 1 0 0
4434 0 1 0 7.684480062927318 51.65779291080528 138.20990626067376 1 0 0
4176 0 1 0 5.603427143242324 38.19140341910441 139.78478528494918 1 0 0
4180 0 1 0 5.573552281625937 40.668611672375704 139.51888212868892 1 0 0
4175 0 1 0 4.155505184333033 38.19379508497939 139.74391824384756 1 0 0
4179 0 1 0 4.1869825091516235 40.64659503449121 139.5484676642742 1 0 0
4170 0 1 0 3.465023287604797 36.952430686410715 139.7120157305007 1 0 0
4174 0 1 0 3.4737588217444175 39.41816276458696 139.63648205036463 1 0 0
4173 0 1 0 2.0441202596398487 39.38874399276804 139.5965315027423 1 0 0
3948 0 1 0 1.2768959747112156 45.53340283381204 138.9916767909409 1 0 0
3936 0 1 0 1.3074167649477293 38.210707886212546 139.71287004370586 1 0 0
3940 0 1 0 1.3220523731850704 40.632153567139156 139.5283723534141 1 0 0
4409 0 1 0 6.283212394974931 36.948632879087405 139.91994165904316 1 0 0
4413 0 1 0 6.2956504337915975 39.43880496687535 139.62135584454137 1 0 0
4410 0 1 0 7.708629654228533 36.92923073409139 139.86097292877528 1 0 0
4414 0 1 0 7.679575067224178 39.39173420060182 139.57889090019555 1 0 0
4415 0 1 0 8.432319669884867 38.17467468264722 139.69503500742144 1 0 0
4425 0 1 0 6.287796010054897 46.770808190527916 138.72807271789026 1 0 0
4186 0 1 0 3.403662890561589 46.821941299393785 138.86784049836513 1 0 0
4418 0 1 0 7.721456382520948 41.829715929363594 139.29850149886627 1 0 0
4419 0 1 0 8.44799679365373 40.61103888943967 139.36852508317332 1 0 0
4421 0 1 0 6.316357494031288 44.35943837742399 139.03540350610714 1 0 0
4184 0 1 0 5.563769250133325 43.11319008299168 139.25591524209756 1 0 0
4183 0 1 0 4.187821160142112 43.13594320720546 139.28928201688 1 0 0
4178 0 1 0 3.4721428756107637 41.905393912003845 139.43307923696872 1 0 0
4182 0 1 0 3.4287848283129505 44.32966869146224 139.06401580127226 1 0 0
4187 0 1 0 4.087610161517464 45.53566437579635 138.90803247190266 1 0 0
4188 0 1 0 5.56223456762187 45.54351387051915 138.96949810262734 1 0 0
4181 0 1 0 2.0271812772653597 44.33658405624532 139.1214453871608 1 0 0
4177 0 1 0 1.9816897299244047 41.89941650711145 139.41356522796326 1 0 0
4169 0 1 0 2.0020184285959948 36.990900325437124 139.69863710851965 1 0 0
4204 0 1 0 5.593432191073844 55.40176582249756 137.9386937591176 1 0 0
4203 0 1 0 4.156669592898668 55.35493085995983 137.94387982300177 1 0 0
4207 0 1 0 4.223608102332727 57.85596755432664 137.86313609544493 1 0 0
4208 0 1 0 5.6030721122639955 57.82227338093227 137.68586336554378 1 0 0
4202 0 1 0 3.4704250821268134 56.655642706298956 137.96148463551407 1 0 0
4206 0 1 0 3.5199163642942697 59.09051388181524 137.9246262970678 1 0 0
3968 0 1 0 1.386135764114935 57.90505348463933 138.12832672923963 1 0 0
4205 0 1 0 2.14548748329325 59.13308711352448 138.0297275750862 1 0 0
4201 0 1 0 2.0519370301490207 56.647691634363895 138.1074685576892 1 0 0
3964 0 1 0 1.3520796572428488 55.43994470132666 138.21896214542167 1 0 0
4441 0 1 0 6.342008583664857 56.592088963672886 137.77422862667186 1 0 0
4445 0 1 0 6.318467773807729 59.05362984663102 137.6687908420916 1 0 0
4442 0 1 0 7.72092983326287 56.63759262755262 137.77261495177933 1 0 0
4443 0 1 0 8.425195316333095 55.363388143660096 137.8647801880686 1 0 0
4225 0 1 0 2.090558695287491 71.44778723968513 136.69606985336844 1 0 0
4447 0 1 0 8.438103830311261 57.81976521528045 137.73309138550837 1 0 0
4232 0 1 0 5.635737386523697 72.62690081960936 136.343450395525 1 0 0
4467 0 1 0 8.40170948707817 70.12228921689253 136.16473115927556 1 0 0
4471 0 1 0 8.450147232957635 72.57314379507724 135.88303308779953 1 0 0
4446 0 1 0 7.776883302533745 59.074279878477114 137.62755887300645 1 0 0
4214 0 1 0 3.5409882716233496 64.04915042974682 137.7598259877215 1 0 0
4211 0 1 0 4.210519420215084 60.35287293917898 137.80326717371503 1 0 0
4212 0 1 0 5.618354126415604 60.33549663404501 137.70569607311938 1 0 0
4210 0 1 0 3.4980710202965937 61.563862429797325 137.93922751253038 1 0 0
4215 0 1 0 4.205961291154699 62.81161884874105 137.84647581685832 1 0 0
4216 0 1 0 5.636219896710379 62.77999857998706 137.7378540763775 1 0 0
4213 0 1 0 2.0772656062041253 64.06164985701724 137.76418061034005 1 0 0
4209 0 1 0 2.0740362517149964 61.58758883020745 138.03099731763112 1 0 0
3972 0 1 0 1.4030485560689665 60.34457840655522 138.035349607912 1 0 0
3976 0 1 0 1.365019881483853 62.80501006531792 137.96526600533835 1 0 0
4449 0 1 0 6.343042243654829 61.57936711822697 137.71679668924864 1 0 0
4453 0 1 0 6.317889581888555 64.03212608093523 137.54662371068173 1 0 0
4450 0 1 0 7.7498453538688326 61.5423844253197 137.49101936902193 1 0 0
4451 0 1 0 8.493610761080822 60.31695336647751 137.5276530155511 1 0 0
4226 0 1 0 3.500455445642596 71.48326465485158 136.734203453472 1 0 0
4465 0 1 0 6.314354887392601 71.37077630204152 136.34948790097351 1 0 0
4466 0 1 0 7.691344234270161 71.36145407658935 136.07065516028473 1 0 0
4455 0 1 0 8.487312345188501 62.76288747354666 137.28217730412678 1 0 0
4462 0 1 0 7.703307887857564 68.91905700302758 136.50840944083203 1 0 0
4454 0 1 0 7.7032988670670735 63.967290592948224 137.27512281090014 1 0 0
4220 0 1 0 5.668180593269696 65.29411293830532 137.50798485947362 1 0 0
4219 0 1 0 4.185697828176489 65.28685157032488 137.69045911948044 1 0 0
4218 0 1 0 3.5156848529806606 66.4906034739775 137.47892742145058 1 0 0
4223 0 1 0 4.190759833692822 67.72812987994648 137.22463000785902 1 0 0
4224 0 1 0 5.597954691110383 67.73879916844444 137.07982594245857 1 0 0
4222 0 1 0 3.510815054927678 69.01687589963369 137.07624117451437 1 0 0
3984 0 1 0 1.391578129857878 67.7789863880711 137.43443809473712 1 0 0
4217 0 1 0 2.099140999433058 66.49925875053977 137.48908448757425 1 0 0
4221 0 1 0 2.1022529223156425 68.98035948905046 137.2576897813217 1 0 0
3980 0 1 0 1.3616619273683344 65.24472378402056 137.62542762973192 1 0 0
4457 0 1 0 6.358595975580323 66.49210535203156 137.21719849699153 1 0 0
4459 0 1 0 8.43363774299188 65.21220649100064 136.9853133537133 1 0 0
3988 0 1 0 1.4489529554237706 70.26270188275208 137.0723205238679 1 0 0
4458 0 1 0 7.722184800007769 66.46849459786175 136.8956055004659 1 0 0
4463 0 1 0 8.435829954242374 67.64063878830095 136.56087387607013 1 0 0
3992 0 1 0 1.3703635536625 72.63546905210418 136.5224638986487 1 0 0
4461 0 1 0 6.257041189201129 68.94275846646337 136.69260969160763 1 0 0
4227 0 1 0 4.196619838954769 70.21516441688425 136.80611258358587 1 0 0
4231 0 1 0 4.204499954091344 72.67350647375666 136.41932121705705 1 0 0
4228 0 1 0 5.584479775484434 70.13849092536996 136.59774874659308 1 0 0
4259 0 1 0 4.275570309980722 89.88789016940233 135.15598225563878 1 0 0
4234 0 1 0 3.5174174475416846 76.26619321009466 135.96514660774739 1 0 0
4235 0 1 0 4.203244213626071 75.03289966876709 136.09664528440038 1 0 0
4236 0 1 0 5.648252184244145 75.08301440636025 136.0662503329518 1 0 0
4240 0 1 0 5.6592177099279 77.5557219184565 135.8672121926488 1 0 0
4239 0 1 0 4.183272493328781 77.54187026274536 135.81607831002333 1 0 0
4233 0 1 0 2.1236099762849223 76.28851918815701 135.98372937591733 1 0 0
4257 0 1 0 2.111869208627328 91.12040147071546 134.92706869363286 1 0 0
4000 0 1 0 1.3925865912298452 77.57175826061182 136.02133068772412 1 0 0
3996 0 1 0 1.3544384570848218 75.05600043105186 136.0777641116838 1 0 0
4258 0 1 0 3.5291834036657717 91.09684696454333 134.9461592206749 1 0 0
4495 0 1 0 8.499299579696443 87.38515516059606 135.1428094061318 1 0 0
4498 0 1 0 7.818093331333344 91.13787464161278 134.95554358459103 1 0 0
4475 0 1 0 8.455343357570554 75.05773292128058 135.75640170725583 1 0 0
4474 0 1 0 7.785046307448163 76.32772586789689 135.8550312355123 1 0 0
4473 0 1 0 6.370475079747304 76.32087819298036 135.94315405346788 1 0 0
4479 0 1 0 8.517033547043322 77.54511074067442 135.67449437913547 1 0 0
4494 0 1 0 7.797580357656926 88.59957117378833 135.14066675755345 1 0 0
4004 0 1 0 1.3880956998399554 80.04125251950717 135.86006188131435 1 0 0
4008 0 1 0 1.3899560566064548 82.52531148752021 135.7817173499123 1 0 0
4238 0 1 0 3.477102573118604 78.7890449313749 135.71681404295276 1 0 0
4237 0 1 0 2.073100419451447 78.79156310525994 135.84431094591812 1 0 0
4243 0 1 0 4.170693187369957 79.99873800279826 135.68345601997373 1 0 0
4241 0 1 0 2.1047665973971244 81.30086591664508 135.86752196185026 1 0 0
4244 0 1 0 5.60225070912951 79.9744058983874 135.58612863638683 1 0 0
4242 0 1 0 3.530668697290333 81.280766581906 135.75347725124257 1 0 0
4248 0 1 0 5.667692010904121 82.44308742981502 135.43813603375364 1 0 0
4247 0 1 0 4.22957572042296 82.46201604167528 135.60701012276868 1 0 0
4477 0 1 0 6.380352306338165 78.77751773632441 135.75134534922964 1 0 0
4478 0 1 0 7.823227823680364 78.75685222987683 135.7448780418718 1 0 0
4483 0 1 0 8.537324619317964 79.97419750789159 135.5748673723802 1 0 0
4499 0 1 0 8.495240316270776 89.8551273886515 135.08101316346432 1 0 0
4481 0 1 0 6.370483178306634 81.22525353087157 135.57477424292364 1 0 0
4482 0 1 0 7.818985561175819 81.20712735839605 135.5909178835096 1 0 0
4487 0 1 0 8.523341382703041 82.41817378421764 135.5492255821233 1 0 0
4493 0 1 0 6.402625216177136 88.622847687146 135.0766782766786 1 0 0
4012 0 1 0 1.40793486256064 85.00415660921597 135.52983696066715 1 0 0
4246 0 1 0 3.500414432343545 83.72052094592678 135.48483331637044 1 0 0
4245 0 1 0 2.109739148080568 83.69936527769704 135.62723275465027 1 0 0
4251 0 1 0 4.24382488508774 84.9233431326542 135.32143060923926 1 0 0
4252 0 1 0 5.6278366929972155 84.89160663626991 135.36121641219714 1 0 0
4250 0 1 0 3.5306331500625965 86.16020908632343 135.2628182581326 1 0 0
4249 0 1 0 2.1055371964882035 86.1846583011468 135.33559313565536 1 0 0
4016 0 1 0 1.3649271773892644 87.44190010663682 135.33619729685466 1 0 0
4485 0 1 0 6.3840847596638834 83.67685760731604 135.43665734828278 1 0 0
4486 0 1 0 7.860289237591569 83.65179171588626 135.3680161259606 1 0 0
4490 0 1 0 7.805376437096243 86.14812970913137 135.29274091315253 1 0 0
4497 0 1 0 6.358215255855786 91.18724835115009 134.9865328763012 1 0 0
4491 0 1 0 8.541371455756513 84.896044060986 135.31026079923595 1 0 0
4489 0 1 0 6.331128105774261 86.18125311138793 135.3558686228212 1 0 0
4260 0 1 0 5.698230360265984 89.91708855227002 135.1144101757638 1 0 0
4020 0 1 0 1.4246047454469033 89.88309603522801 135.12719906953706 1 0 0
4256 0 1 0 5.665519905689964 87.41717081268807 135.23712969982614 1 0 0
4255 0 1 0 4.216300949487184 87.42992318710995 135.25342876725787 1 0 0
4253 0 1 0 2.129711285452379 88.62868057416559 135.29051939288763 1 0 0
4254 0 1 0 3.5595238603322485 88.67234337041668 135.27673146268506 1 0 0
4229 0 1 0 2.052499163248828 73.81439808854908 136.24816554130786 1 0 0
4230 0 1 0 3.466236170879173 73.84989860856064 136.25265576254222 1 0 0
4470 0 1 0 7.737147554471682 73.83781463595734 135.94646959286038 1 0 0
4469 0 1 0 6.337208089726704 73.8706938569327 136.13435472143848 1 0 0
4282 0 1 0 3.650791777203752 106.05554941589983 134.41394835710355 1 0 0
4261 0 1 0 2.150124724741143 93.61939527011906 134.59147647767358 1 0 0
4265 0 1 0 2.1388871365632642 96.11532267538419 134.57729587686592 1 0 0
4263 0 1 0 4.257290524379912 92.35782057434598 134.69065470507678 1 0 0
4268 0 1 0 5.675248252709278 94.8882381487765 134.6902112125171 1 0 0
4024 0 1 0 1.413820789604178 92.36405301596702 134.75745979014118 1 0 0
4262 0 1 0 3.571284471966719 93.64868621017726 134.5712144141875 1 0 0
4267 0 1 0 4.27887947288125 94.86029517623987 134.61214123990047 1 0 0
4266 0 1 0 3.5967160056329224 96.10665635870582 134.6096934703245 1 0 0
4028 0 1 0 1.3969906273790684 94.88082878541452 134.64681506840066 1 0 0
4281 0 1 0 2.2517922607209777 105.97537232404243 134.34355562097954 1 0 0
4505 0 1 0 6.454807660195143 96.11321456322128 134.71305800705346 1 0 0
4503 0 1 0 8.526909640264195 92.36070121250498 134.74992078853316 1 0 0
4526 0 1 0 7.954449053874368 108.46808998630559 134.791862113537 1 0 0
4522 0 1 0 7.989986968721367 105.95665480179824 134.40832793389015 1 0 0
4501 0 1 0 6.372889986997377 93.64536360608338 134.72521683954105 1 0 0
4507 0 1 0 8.555323100791348 94.7917310333197 134.59888741150968 1 0 0
4502 0 1 0 7.787603193447826 93.58313058333363 134.62428868739616 1 0 0
4506 0 1 0 7.860474533879423 96.02141605835028 134.64186294176147 1 0 0
4525 0 1 0 6.564552472659078 108.41049117056345 134.62106137390734 1 0 0
4274 0 1 0 3.553797859937489 101.07731430462175 134.46143576280164 1 0 0
4273 0 1 0 2.143056086987822 101.07974165682205 134.54977393298896 1 0 0
4269 0 1 0 2.145668571887905 98.56973379946663 134.65770922014664 1 0 0
4032 0 1 0 1.4213995562729886 97.35720749556143 134.5926667095519 1 0 0
4036 0 1 0 1.4433882125194888 99.80614035304748 134.61616522428514 1 0 0
4270 0 1 0 3.5375978573984272 98.6120086297588 134.5245271682435 1 0 0
4272 0 1 0 5.724214246447229 97.34120700685303 134.686250148787 1 0 0
4276 0 1 0 5.718990140888355 99.84770715100267 134.5663999155138 1 0 0
4275 0 1 0 4.305141327452154 99.82323038095944 134.51873301874664 1 0 0
4271 0 1 0 4.298503516469434 97.35036295519613 134.64103817458238 1 0 0
4509 0 1 0 6.4589985646418295 98.59665294407357 134.64470125254567 1 0 0
4514 0 1 0 7.88300526409005 100.98548352071171 134.48335181212508 1 0 0
4513 0 1 0 6.5015195066482105 101.06472425475972 134.43984436659812 1 0 0
4511 0 1 0 8.560652927023321 97.25608010935753 134.4556015703643 1 0 0
4527 0 1 0 8.651925341210422 107.201328446473 134.60195072897187 1 0 0
4521 0 1 0 6.541043346067096 105.95477531192739 134.43806031099865 1 0 0
4515 0 1 0 8.592567839804731 99.74803082559222 134.46030813279535 1 0 0
4510 0 1 0 7.897809860381672 98.5247848678138 134.57195262352658 1 0 0
4283 0 1 0 4.328041182830871 104.77745075408087 134.34283317440895 1 0 0
4284 0 1 0 5.800478660994734 104.74916894558281 134.37100528331496 1 0 0
4278 0 1 0 3.642561900432905 103.53591333590849 134.35907739689253 1 0 0
4277 0 1 0 2.1806550707819023 103.56031981628864 134.30197037442534 1 0 0
4279 0 1 0 4.3197499576876535 102.29069552595533 134.38323133256063 1 0 0
4280 0 1 0 5.772127737236736 102.27776884600392 134.40641448714695 1 0 0
4040 0 1 0 1.4656972499716412 102.29655005833753 134.43005203869515 1 0 0
4044 0 1 0 1.503616286367428 104.78913343326266 134.37157523719077 1 0 0
4523 0 1 0 8.671720330237761 104.71321348794858 134.37239589387238 1 0 0
4048 0 1 0 1.5502183897532444 107.2119961730299 134.4174254846618 1 0 0
4517 0 1 0 6.509237774117131 103.51555142794368 134.38463707155125 1 0 0
4518 0 1 0 7.935270211361551 103.4584763696424 134.30722878857998 1 0 0
4519 0 1 0 8.62815207562494 102.18306346512846 134.37311891366514 1 0 0
4052 0 1 0 1.508706469392132 109.712217716535 134.33569388713588 1 0 0
4531 0 1 0 8.647953591479691 109.66234726823708 134.96645072149377 1 0 0
4291 0 1 0 4.365363979114101 109.74207642120705 134.55837041647877 1 0 0
4285 0 1 0 2.2135105259323375 108.48406971653344 134.44738190185458 1 0 0
4286 0 1 0 3.6386302944132973 108.50635670207842 134.561361521404 1 0 0
4292 0 1 0 5.808139401371144 109.62590222648483 134.6264978174869 1 0 0
4288 0 1 0 5.818559646163014 107.19685316006081 134.56239111194773 1 0 0
4287 0 1 0 4.363946581561609 107.25655318659302 134.5188071467099 1 0 0
4264 0 1 0 5.654644168689029 92.412681143466 134.8159287272601 1 0 0
4051 0 1 0 0.09949314984124763 109.70205779172984 134.26395094830414 1 0 0
4047 0 1 0 0.11026864281173125 107.24186608160474 134.26179317679657 1 0 0
4039 0 1 0 0.017325782562727526 102.32681346576402 134.32940106976457 1 0 0
4043 0 1 0 0.058002524516830425 104.74481283025993 134.27853024531422 1 0 0
4299 0 1 0 4.394729035626818 114.66260415286222 134.74852112488077 1 0 0
4300 0 1 0 5.791859566896789 114.58435776120508 134.9531713252447 1 0 0
4294 0 1 0 3.661413723403731 113.42972419713884 134.56518242441967 1 0 0
4293 0 1 0 2.2240332747644542 113.40909453734538 134.55005417615791 1 0 0
4296 0 1 0 5.8670686142266435 112.19025947351952 134.56018591518122 1 0 0
4290 0 1 0 3.6509477762252 110.99619287426624 134.45670987051986 1 0 0
4295 0 1 0 4.4254019482546125 112.2156324497783 134.47474860249855 1 0 0
4289 0 1 0 2.2026464198291507 110.97710216829871 134.40583041992267 1 0 0
4060 0 1 0 1.5137287127487984 114.64564730286675 134.61882109256018 1 0 0
4056 0 1 0 1.4970087490757067 112.16203889090542 134.41578080395877 1 0 0
4557 0 1 0 6.338015328447117 127.83939607771721 137.92509687805136 1 0 0
4539 0 1 0 8.642902848110847 114.55668752561799 135.52672570916442 1 0 0
4533 0 1 0 6.564961680012163 113.37952883446445 134.8209409508141 1 0 0
4534 0 1 0 7.959516212024599 113.35415600790716 135.17341916426204 1 0 0
4529 0 1 0 6.482829781244184 110.93551974671037 134.70555723615433 1 0 0
4530 0 1 0 7.923317985774472 110.89351568745312 134.90817644527405 1 0 0
4535 0 1 0 8.67702442562462 112.12660835346361 135.10338718817673 1 0 0
4315 0 1 0 4.298055666475415 124.34464928726523 136.7351516341106 1 0 0
4308 0 1 0 5.725616407799318 119.44277688677217 135.83730080962596 1 0 0
4307 0 1 0 4.306121204644816 119.51350060344842 135.70714188040816 1 0 0
4304 0 1 0 5.761902422250804 117.02325869402479 135.39182982763808 1 0 0
4302 0 1 0 3.5956597256300373 118.32405878242557 135.3567610205331 1 0 0
4303 0 1 0 4.366514009111418 117.15323619053028 135.09229185505782 1 0 0
4298 0 1 0 3.7159243107628677 115.94834325273413 134.81567711867675 1 0 0
4068 0 1 0 1.4661540761645573 119.55313287413429 135.19565014675962 1 0 0
4301 0 1 0 2.1806363042414945 118.31186299872104 135.18339582753038 1 0 0
4297 0 1 0 2.26761452476391 115.85976943763124 134.75812783906653 1 0 0
4064 0 1 0 1.5112232470595015 117.08126562793977 134.90312304002214 1 0 0
4541 0 1 0 6.46145213393038 118.24335256985053 135.71171057774822 1 0 0
4537 0 1 0 6.452028590213124 115.79091654613212 135.34878223523964 1 0 0
4542 0 1 0 7.829283717513984 118.24662837202195 135.967706307721 1 0 0
4554 0 1 0 7.848292386757382 125.47542644117904 137.44097743278124 1 0 0
4080 0 1 0 1.4552843852614594 126.77173077877704 136.77113412028532 1 0 0
4547 0 1 0 8.563474296786305 119.41571980633378 136.34808005929014 1 0 0
4553 0 1 0 6.407315488907002 125.4927723180303 137.32549053943364 1 0 0
4543 0 1 0 8.5812852432861 117.04257729153973 135.78854211672098 1 0 0
4538 0 1 0 7.923393373071281 115.76795158208888 135.60729195758023 1 0 0
4559 0 1 0 8.578824050641629 126.71428215711589 137.6538544415598 1 0 0
4306 0 1 0 3.565746358476648 120.75201347439328 135.83836671743376 1 0 0
4311 0 1 0 4.3171343319866775 121.93129814479354 136.2257849380858 1 0 0
4312 0 1 0 5.748830359430757 121.91729784116335 136.33421837092595 1 0 0
4310 0 1 0 3.5706751680737105 123.14872299693653 136.33373996978048 1 0 0
4305 0 1 0 2.201690325381523 120.83253038453552 135.52212767657227 1 0 0
4309 0 1 0 2.1954028509748698 123.18940232243028 136.06315745315078 1 0 0
4072 0 1 0 1.4715355118744617 122.01812669169668 135.69838871286387 1 0 0
4549 0 1 0 6.474141667049849 123.08786790991928 136.74181462477165 1 0 0
4545 0 1 0 6.418564059485244 120.69231313022321 136.15477245174233 1 0 0
4313 0 1 0 2.195701425312412 125.57797612523852 136.58203165329428 1 0 0
4558 0 1 0 7.776053552042969 127.88795862213338 137.90073362790878 1 0 0
4551 0 1 0 8.599653409728713 121.83848675313298 136.71395286159574 1 0 0
4550 0 1 0 7.865898396126325 123.05950996277234 136.89008701190517 1 0 0