LAMMPS (4 Feb 2025)
OMP_NUM_THREADS environment is not set. Defaulting to 1 thread. (src/comm.cpp:99)
  using 1 OpenMP thread(s) per MPI task
# LAMMPS script for running NVT simulation

units       metal                   # Energies in eV, distances in A
dimension   3
boundary    p p p
atom_style  full

read_data   ../start.lammps-data
Reading data file ...
  orthogonal box = (0 0 0) to (154.008 148.19427 151.07317)
  10 by 8 by 8 MPI processor grid
  reading atoms ...
  22680 atoms
  scanning bonds ...
  2 = max bonds/atom
  reading velocities ...
  22680 velocities
  scanning angles ...
  1 = max angles/atom
  orthogonal box = (0 0 0) to (154.008 148.19427 151.07317)
  10 by 8 by 8 MPI processor grid
  reading bonds ...
  9360 bonds
  reading angles ...
  4680 angles
Finding 1-2 1-3 1-4 neighbors ...
  special bond factors lj:    0        0        0       
  special bond factors coul:  0        0        0       
     2 = max # of 1-2 neighbors
     1 = max # of 1-3 neighbors
     1 = max # of 1-4 neighbors
     2 = max # of special neighbors
  special bonds CPU = 6.658 seconds
  read_data CPU = 7.097 seconds

bond_style   zero                    # SPC/E rigid model
bond_coeff   1 1.0                   # SPC/E rigid model
angle_style  zero                    # SPC/E rigid model
angle_coeff  1 109.47                # SPC/E rigid model
pair_style   lj/cut/coul/long 9.0    # Cutoff radius of 0.9 nm = 9 A
kspace_style pppm 1.0e-5             # Particle-particle particle-mesh Ewald summation
pair_coeff   1 1 0.0      1.0        # Ignore C-C
pair_coeff   1 2 0.0      1.0        # Ignore C-H
pair_coeff   1 3 0.004551 3.367      # LJ for C-O (0.4391 kJ/mol = 0.004551 eV)
pair_coeff   2 2 0.0      1.0        # SPC/E H-H
pair_coeff   2 3 0.0      1.0        # SPC/E H-O
pair_coeff   3 3 0.006735 3.166      # SPC/E O-O (0.1553 kcal/mol = 0.006735 eV)

set type 2 charge 0.4238            # SPC/E H
Setting atom values ...
  9360 settings made for charge
set type 3 charge -0.8476           # SPC/E O
Setting atom values ...
  4680 settings made for charge

variable t equal step

group graphene type 1
8640 atoms in group graphene
group H2O type 2 3
14040 atoms in group H2O

######### Energy minimization #########

thermo 10
fix graphene_fix graphene setforce 0.0 0.0 0.0
fix rigid_bonds H2O shake 0.0001 10 10000 b 1 a 1
Finding SHAKE clusters ...
       0 = # of size 2 clusters
       0 = # of size 3 clusters
       0 = # of size 4 clusters
    4680 = # of frozen angles
  find clusters CPU = 0.218 seconds
minimize 0.0 0.0 1000 1000000
PPPM initialization ...
  using 12-bit tables for long-range coulomb (src/kspace.cpp:342)
  G vector (1/distance) = 0.30003007
  grid = 96 90 96
  stencil order = 5
  estimated absolute RMS force accuracy = 0.00016542148
  estimated relative force accuracy = 1.1487886e-05
  using double precision KISS FFT
  3d grid and FFT values/proc = 5472 1440
Generated 0 of 3 mixed pair_coeff terms from geometric mixing rule
WARNING: Using fix shake with minimization.
  Substituting constraints with harmonic restraint forces using kbond=86.17 (src/RIGID/fix_shake.cpp:386)
Neighbor list info ...
  update: every = 1 steps, delay = 0 steps, check = yes
  max neighbors/atom: 2000, page size: 100000
  master list distance cutoff = 11
  ghost atom cutoff = 11
  binsize = 5.5, bins = 29 27 28
  1 neighbor lists, perpetual/occasional/extra = 1 0 0
  (1) pair lj/cut/coul/long, perpetual
      attributes: half, newton on
      pair build: half/bin/newton
      stencil: half/bin/3d
      bin: standard
Per MPI rank memory allocation (min/avg/max) = 9.215 | 9.306 | 10.13 Mbytes
   Step          Temp          E_pair         E_mol          TotEng         Press     
         0   236.01419     -1579.7993      0             -1030.6997      1869.4386    
        10   236.01419     -2097.1258      0             -1507.5411      527.28245    
        16   236.01419     -2212.7622      0              4583860.8     -813811.83    
SHAKE stats (type/ave/delta/count) on step 16
Bond:   1   1.47583   28.4668         9358
Angle:  1   105.037   177.244         4671
Loop time of 0.392414 on 640 procs for 16 steps with 22680 atoms

97.9% CPU use with 640 MPI tasks x 1 OpenMP threads

Minimization stats:
  Stopping criterion = linesearch alpha is zero
  Energy initial, next-to-last, final = 
     -1579.79928640527  -2164.72924266911   4583311.74899877
  Force two-norm initial, final = 947.6242 63944.592
  Force max component initial, final = 721.99197 6499.6356
  Final line search alpha, max atom move = 1.2505362e-12 8.1280297e-09
  Iterations, force evaluations = 16 49

MPI task timing breakdown:
Section |  min time  |  avg time  |  max time  |%varavg| %total
---------------------------------------------------------------
Pair    | 7.633e-06  | 0.0075257  | 0.19975    |  33.9 |  1.92
Bond    | 6.662e-06  | 1.5636e-05 | 3.0587e-05 |   0.0 |  0.00
Kspace  | 0.16483    | 0.36358    | 0.37273    |   5.1 | 92.65
Neigh   | 0.0044398  | 0.0047939  | 0.0049014  |   0.2 |  1.22
Comm    | 0.00011424 | 0.0022961  | 0.011897   |   6.6 |  0.59
Output  | 0.00015563 | 0.00016204 | 0.00018335 |   0.0 |  0.04
Modify  | 0.00012504 | 0.0013636  | 0.0026394  |   1.0 |  0.35
Other   |            | 0.01268    |            |       |  3.23

Nlocal:        35.4375 ave         625 max           0 min
Histogram: 544 54 5 5 4 6 5 3 2 12
Nghost:        361.395 ave        4185 max           0 min
Histogram: 445 104 26 20 19 9 5 5 3 4
Neighs:        6274.81 ave      170788 max           0 min
Histogram: 603 5 4 6 5 2 3 1 2 9

Total # of neighbors = 4015876
Ave neighs/atom = 177.06684
Ave special neighs/atom = 1.2380952
Neighbor list builds = 1
Dangerous builds = 0
unfix graphene_fix
reset_timestep 0

######### Soft run to prevent explosion #########

thermo 150
timestep 0.00001
fix NVT1 H2O nvt temp 300 300 $(20.0*dt)
fix NVT1 H2O nvt temp 300 300 0.00020000000000000000958
run 1500
PPPM initialization ...
  using 12-bit tables for long-range coulomb (src/kspace.cpp:342)
  G vector (1/distance) = 0.30003007
  grid = 96 90 96
  stencil order = 5
  estimated absolute RMS force accuracy = 0.00016542148
  estimated relative force accuracy = 1.1487886e-05
  using double precision KISS FFT
  3d grid and FFT values/proc = 5472 1440
Generated 0 of 3 mixed pair_coeff terms from geometric mixing rule
SHAKE stats (type/ave/delta/count) on step 0
Bond:   1   1.00617   0.169705        9360
Angle:  1   108.276   13.5819         4680
Per MPI rank memory allocation (min/avg/max) = 8.09 | 8.181 | 9.005 Mbytes
   Step          Temp          E_pair         E_mol          TotEng         Press     
         0   236.01419     -2212.7622      0             -1663.6625     -2321.6801    
       150   155.45467     -2131.9168      0             -1770.2432     -166.3011     
       300   153.68798     -2127.2246      0             -1769.6613     -162.32413    
       450   153.83953     -2119.9097      0             -1761.9939     -154.88796    
       600   156.89508     -2111.1317      0             -1746.1069     -144.49624    
       750   156.28476     -2102.1096      0             -1738.5048     -134.62084    
       900   155.36098     -2094.0558      0             -1732.6002     -125.0751     
      1050   156.94336     -2087.9124      0             -1722.7753     -115.53696    
      1200   156.8218      -2084.2837      0             -1719.4294     -108.34046    
      1350   155.68911     -2083.2818      0             -1721.0628     -103.41844    
      1500   156.09635     -2084.64        0             -1721.4735     -99.636204    
Loop time of 9.60748 on 640 procs for 1500 steps with 22680 atoms

Performance: 0.135 ns/day, 177.916 hours/ns, 156.128 timesteps/s, 3.541 Matom-step/s
99.9% CPU use with 640 MPI tasks x 1 OpenMP threads

MPI task timing breakdown:
Section |  min time  |  avg time  |  max time  |%varavg| %total
---------------------------------------------------------------
Pair    | 0.00012732 | 0.15402    | 4.1704     | 156.8 |  1.60
Bond    | 0.0001137  | 0.00026462 | 0.00054711 |   0.0 |  0.00
Kspace  | 4.8424     | 8.8028     | 9.0225     |  20.5 | 91.62
Neigh   | 0          | 0          | 0          |   0.0 |  0.00
Comm    | 0.00041331 | 0.084395   | 0.48159    |  45.4 |  0.88
Output  | 0.0019933  | 0.0020432  | 0.0021453  |   0.1 |  0.02
Modify  | 0.23536    | 0.53248    | 0.67236    |  15.8 |  5.54
Other   |            | 0.03148    |            |       |  0.33

Nlocal:        35.4375 ave         625 max           0 min
Histogram: 544 54 5 5 4 5 6 3 2 12
Nghost:        361.384 ave        4184 max           0 min
Histogram: 445 104 26 20 19 9 5 5 3 4
Neighs:        6274.29 ave      170528 max           0 min
Histogram: 603 5 4 6 5 2 3 1 2 9

Total # of neighbors = 4015548
Ave neighs/atom = 177.05238
Ave special neighs/atom = 1.2380952
Neighbor list builds = 0
Dangerous builds = 0
unfix NVT1
reset_timestep 0

######### A little bit faster #########

thermo 150
timestep 0.00002
fix NVT1 H2O nvt temp 300 300 $(25.0*dt)
fix NVT1 H2O nvt temp 300 300 0.00050000000000000001041
run 1500
PPPM initialization ...
  using 12-bit tables for long-range coulomb (src/kspace.cpp:342)
  G vector (1/distance) = 0.30003007
  grid = 96 90 96
  stencil order = 5
  estimated absolute RMS force accuracy = 0.00016542148
  estimated relative force accuracy = 1.1487886e-05
  using double precision KISS FFT
  3d grid and FFT values/proc = 5472 1440
Generated 0 of 3 mixed pair_coeff terms from geometric mixing rule
SHAKE stats (type/ave/delta/count) on step 0
Bond:   1   1         3.50425e-10     9360
Angle:  1   109.47    3.60579e-08     4680
Per MPI rank memory allocation (min/avg/max) = 8.09 | 8.181 | 9.005 Mbytes
   Step          Temp          E_pair         E_mol          TotEng         Press     
         0   156.09635     -2084.64        0             -1721.4735     -99.652619    
       150   157.01631     -2092.0079      0             -1726.701      -95.924647    
       300   156.70301     -2100.6142      0             -1736.0363     -94.289143    
       450   154.59087     -2106.5748      0             -1746.9109     -92.008635    
       600   155.7651      -2109.3336      0             -1746.9378     -86.521318    
       750   157.58195     -2110.6433      0             -1744.0205     -79.967364    
       900   155.08764     -2112.6995      0             -1751.8798     -76.034927    
      1050   156.71976     -2116.4596      0             -1751.8427     -72.261497    
      1200   154.32936     -2121.4399      0             -1762.3844     -71.717635    
      1350   155.77644     -2126.5344      0             -1764.1122     -70.461887    
      1500   158.06193     -2130.7772      0             -1763.0377     -68.6797      
Loop time of 9.61207 on 640 procs for 1500 steps with 22680 atoms

Performance: 0.270 ns/day, 89.001 hours/ns, 156.054 timesteps/s, 3.539 Matom-step/s
100.0% CPU use with 640 MPI tasks x 1 OpenMP threads

MPI task timing breakdown:
Section |  min time  |  avg time  |  max time  |%varavg| %total
---------------------------------------------------------------
Pair    | 0.00012989 | 0.15419    | 4.1777     | 157.0 |  1.60
Bond    | 0.00010749 | 0.00026701 | 0.00054797 |   0.0 |  0.00
Kspace  | 4.8333     | 8.806      | 9.0281     |  20.6 | 91.61
Neigh   | 0.0042978  | 0.006358   | 0.0066162  |   0.8 |  0.07
Comm    | 0.00051868 | 0.084823   | 0.48181    |  45.4 |  0.88
Output  | 0.0020329  | 0.0020832  | 0.0021841  |   0.0 |  0.02
Modify  | 0.23032    | 0.52722    | 0.66944    |  15.9 |  5.49
Other   |            | 0.03108    |            |       |  0.32

Nlocal:        35.4375 ave         631 max           0 min
Histogram: 544 54 5 5 4 6 5 3 3 11
Nghost:        361.341 ave        4188 max           0 min
Histogram: 445 105 26 19 19 9 5 5 3 4
Neighs:        6279.63 ave      170035 max           0 min
Histogram: 603 5 3 6 6 2 3 0 3 9

Total # of neighbors = 4018964
Ave neighs/atom = 177.203
Ave special neighs/atom = 1.2380952
Neighbor list builds = 1
Dangerous builds = 0
unfix NVT1
reset_timestep 0

######### And faster still #########

thermo 150
timestep 0.00005
fix NVT1 H2O nvt temp 300 300 $(30.0*dt)
fix NVT1 H2O nvt temp 300 300 0.0015000000000000000312
run 1500
PPPM initialization ...
  using 12-bit tables for long-range coulomb (src/kspace.cpp:342)
  G vector (1/distance) = 0.30003007
  grid = 96 90 96
  stencil order = 5
  estimated absolute RMS force accuracy = 0.00016542148
  estimated relative force accuracy = 1.1487886e-05
  using double precision KISS FFT
  3d grid and FFT values/proc = 5472 1440
Generated 0 of 3 mixed pair_coeff terms from geometric mixing rule
SHAKE stats (type/ave/delta/count) on step 0
Bond:   1   1         4.92809e-11     9360
Angle:  1   109.47    3.48845e-09     4680
Per MPI rank memory allocation (min/avg/max) = 8.09 | 8.181 | 9.005 Mbytes
   Step          Temp          E_pair         E_mol          TotEng         Press     
         0   158.06193     -2130.7772      0             -1763.0377     -68.676178    
       150   155.28031     -2136.9992      0             -1775.7313     -64.413933    
       300   155.68959     -2141.6369      0             -1779.4168     -57.55232     
       450   154.59267     -2145.5112      0             -1785.8431     -50.230344    
       600   155.62635     -2149.4611      0             -1787.3881     -41.515981    
       750   156.54622     -2153.2818      0             -1789.0687     -34.656119    
       900   157.19309     -2155.3113      0             -1789.5932     -27.522513    
      1050   157.12588     -2159.8101      0             -1794.2483     -21.4169      
      1200   154.48254     -2164.0431      0             -1804.6312     -17.427834    
      1350   155.86702     -2168.0973      0             -1805.4644     -17.064016    
      1500   155.16383     -2170.8027      0             -1809.8057     -18.819836    
Loop time of 9.67332 on 640 procs for 1500 steps with 22680 atoms

Performance: 0.670 ns/day, 35.827 hours/ns, 155.066 timesteps/s, 3.517 Matom-step/s
100.0% CPU use with 640 MPI tasks x 1 OpenMP threads

MPI task timing breakdown:
Section |  min time  |  avg time  |  max time  |%varavg| %total
---------------------------------------------------------------
Pair    | 0.00013079 | 0.15455    | 4.2248     | 157.2 |  1.60
Bond    | 0.00011012 | 0.00026914 | 0.00054099 |   0.0 |  0.00
Kspace  | 4.8203     | 8.8502     | 9.0679     |  20.6 | 91.49
Neigh   | 0.018094   | 0.01919    | 0.01952    |   0.3 |  0.20
Comm    | 0.00079487 | 0.085167   | 0.48301    |  45.3 |  0.88
Output  | 0.0022294  | 0.0022728  | 0.0023844  |   0.0 |  0.02
Modify  | 0.23461    | 0.53078    | 0.66907    |  15.8 |  5.49
Other   |            | 0.03088    |            |       |  0.32

Nlocal:        35.4375 ave         628 max           0 min
Histogram: 544 54 5 5 4 5 6 3 3 11
Nghost:        361.719 ave        4201 max           0 min
Histogram: 446 104 26 19 19 9 5 5 3 4
Neighs:        6316.95 ave      171630 max           0 min
Histogram: 603 4 4 6 6 2 3 1 2 9

Total # of neighbors = 4042848
Ave neighs/atom = 178.25608
Ave special neighs/atom = 1.2380952
Neighbor list builds = 4
Dangerous builds = 0
unfix NVT1
reset_timestep 0

######### NVT equilibration for 10 ns #############

thermo 10000
#dump DUMP1 all atom 100 nvt_equi.lammpstrj
timestep 0.001
fix NVT1 H2O nvt temp 300 300 $(100.0*dt)
fix NVT1 H2O nvt temp 300 300 0.10000000000000000555
run 10000000
PPPM initialization ...
  using 12-bit tables for long-range coulomb (src/kspace.cpp:342)
  G vector (1/distance) = 0.30003007
  grid = 96 90 96
  stencil order = 5
  estimated absolute RMS force accuracy = 0.00016542148
  estimated relative force accuracy = 1.1487886e-05
  using double precision KISS FFT
  3d grid and FFT values/proc = 5472 1440
Generated 0 of 3 mixed pair_coeff terms from geometric mixing rule
SHAKE stats (type/ave/delta/count) on step 0
Bond:   1   1         1.92661e-09     9360
Angle:  1   109.47    1.47628e-07     4680
Per MPI rank memory allocation (min/avg/max) = 8.09 | 8.181 | 9.005 Mbytes
   Step          Temp          E_pair         E_mol          TotEng         Press     
         0   155.16383     -2170.8027      0             -1809.8057     -18.969405    
SHAKE stats (type/ave/delta/count) on step 10000
Bond:   1   1         1.39989e-06     9360
Angle:  1   109.47    0.000103293     4680
     10000   155.93204     -2184.5436      0             -1821.7594     -11.378728    
SHAKE stats (type/ave/delta/count) on step 20000
Bond:   1   1         1.3686e-06      9360
Angle:  1   109.47    9.75583e-05     4680
     20000   155.778       -2189.5353      0             -1827.1095      0.078161271  
SHAKE stats (type/ave/delta/count) on step 30000
Bond:   1   1         1.22375e-06     9360
Angle:  1   109.47    0.00010788      4680
     30000   156.65        -2192.6603      0             -1828.2057     -17.323607    
SHAKE stats (type/ave/delta/count) on step 40000
Bond:   1   1         1.40246e-06     9360
Angle:  1   109.47    0.000111368     4680
     40000   157.54815     -2190.0545      0             -1823.5103     -13.248309    
SHAKE stats (type/ave/delta/count) on step 50000
Bond:   1   1         1.35056e-06     9360
Angle:  1   109.47    9.75532e-05     4680
     50000   156.45978     -2196.5793      0             -1832.5673     -18.88783     
SHAKE stats (type/ave/delta/count) on step 60000
Bond:   1   1         1.24453e-06     9360
Angle:  1   109.47    0.000116339     4680
     60000   155.86916     -2186.4817      0             -1823.8437     -25.326092    
SHAKE stats (type/ave/delta/count) on step 70000
Bond:   1   1         1.52834e-06     9360
Angle:  1   109.47    0.000122173     4680
     70000   157.23644     -2189.9117      0             -1824.0927     -7.3735454    
SHAKE stats (type/ave/delta/count) on step 80000
Bond:   1   1         1.20642e-06     9360
Angle:  1   109.47    9.73985e-05     4680
     80000   153.4405      -2187.7431      0             -1830.7556     -14.329631    
SHAKE stats (type/ave/delta/count) on step 90000
Bond:   1   1         1.38726e-06     9360
Angle:  1   109.47    0.000102097     4680
     90000   157.14723     -2195.6618      0             -1830.0504     -12.02006     
SHAKE stats (type/ave/delta/count) on step 100000
Bond:   1   1         1.18371e-06     9360
Angle:  1   109.47    9.3906e-05      4680
    100000   152.96286     -2191.6141      0             -1835.7379     -8.8781676    
SHAKE stats (type/ave/delta/count) on step 110000
Bond:   1   1         1.25158e-06     9360
Angle:  1   109.47    0.000107823     4680
    110000   155.95739     -2190.3952      0             -1827.552      -17.315307    
SHAKE stats (type/ave/delta/count) on step 120000
Bond:   1   1         1.27073e-06     9360
Angle:  1   109.47    9.76055e-05     4680
    120000   157.34252     -2189.498       0             -1823.4322     -20.895569    
SHAKE stats (type/ave/delta/count) on step 130000
Bond:   1   1         1.30477e-06     9360
Angle:  1   109.47    9.76987e-05     4680
    130000   156.34378     -2192.3006      0             -1828.5585     -12.507548    
SHAKE stats (type/ave/delta/count) on step 140000
Bond:   1   1         1.31579e-06     9360
Angle:  1   109.47    9.3555e-05      4680
    140000   154.27297     -2199.2109      0             -1840.2866     -8.1765979    
SHAKE stats (type/ave/delta/count) on step 150000
Bond:   1   1         1.33009e-06     9360
Angle:  1   109.47    9.61747e-05     4680
    150000   157.79218     -2190.246       0             -1823.134      -8.2587814    
SHAKE stats (type/ave/delta/count) on step 160000
Bond:   1   1         1.2096e-06      9360
Angle:  1   109.47    0.000105617     4680
    160000   154.79139     -2186.697       0             -1826.5666     -7.6126268    
SHAKE stats (type/ave/delta/count) on step 170000
Bond:   1   1         1.54574e-06     9360
Angle:  1   109.47    9.81291e-05     4680
    170000   156.08585     -2186.1558      0             -1823.0138     -14.834993    
SHAKE stats (type/ave/delta/count) on step 180000
Bond:   1   1         1.29778e-06     9360
Angle:  1   109.47    9.95966e-05     4680
    180000   156.27031     -2186.4929      0             -1822.9217     -23.18865     
SHAKE stats (type/ave/delta/count) on step 190000
Bond:   1   1         1.45141e-06     9360
Angle:  1   109.47    0.000134856     4680
    190000   156.80351     -2188.1261      0             -1823.3144     -5.6790594    
SHAKE stats (type/ave/delta/count) on step 200000
Bond:   1   1         1.53072e-06     9360
Angle:  1   109.47    0.000102134     4680
    200000   158.01371     -2186.4635      0             -1818.8362     -6.5604453    
SHAKE stats (type/ave/delta/count) on step 210000
Bond:   1   1         1.2495e-06      9360
Angle:  1   109.47    0.000100619     4680
    210000   154.51299     -2195.3671      0             -1835.8844     -6.4629359    
SHAKE stats (type/ave/delta/count) on step 220000
Bond:   1   1         1.29048e-06     9360
Angle:  1   109.47    9.58455e-05     4680
    220000   155.94743     -2178.7609      0             -1815.9409     -3.1212805    
SHAKE stats (type/ave/delta/count) on step 230000
Bond:   1   1         1.31675e-06     9360
Angle:  1   109.47    9.90357e-05     4680
    230000   155.64431     -2192.8663      0             -1830.7515     -5.2743381    
SHAKE stats (type/ave/delta/count) on step 240000
Bond:   1   1         1.24573e-06     9360
Angle:  1   109.47    0.000105608     4680
    240000   155.9752      -2192.721       0             -1829.8364      0.81267233   
SHAKE stats (type/ave/delta/count) on step 250000
Bond:   1   1         1.34394e-06     9360
Angle:  1   109.47    0.000106532     4680
    250000   157.82576     -2189.2938      0             -1822.1037     -8.5830547    
SHAKE stats (type/ave/delta/count) on step 260000
Bond:   1   1         1.43793e-06     9360
Angle:  1   109.47    0.000108219     4680
    260000   155.69672     -2200.5584      0             -1838.3217     -0.40263252   
SHAKE stats (type/ave/delta/count) on step 270000
Bond:   1   1         1.31392e-06     9360
Angle:  1   109.47    0.00010703      4680
    270000   153.64422     -2192.8014      0             -1835.3399     -7.8290441    
SHAKE stats (type/ave/delta/count) on step 280000
Bond:   1   1         1.44403e-06     9360
Angle:  1   109.47    0.000104301     4680
    280000   156.63562     -2193.5767      0             -1829.1556     -6.7553421    
SHAKE stats (type/ave/delta/count) on step 290000
Bond:   1   1         1.47251e-06     9360
Angle:  1   109.47    0.000104271     4680
    290000   156.30692     -2193.6284      0             -1829.972      -14.778099    
SHAKE stats (type/ave/delta/count) on step 300000
Bond:   1   1         1.43418e-06     9360
Angle:  1   109.47    9.61922e-05     4680
    300000   153.91095     -2196.133       0             -1838.051      -11.658908    
SHAKE stats (type/ave/delta/count) on step 310000
Bond:   1   1         1.5351e-06      9360
Angle:  1   109.47    0.000119831     4680
    310000   158.72029     -2191.3104      0             -1822.0392     -9.1538587    
SHAKE stats (type/ave/delta/count) on step 320000
Bond:   1   1         1.45206e-06     9360
Angle:  1   109.47    9.6667e-05      4680
    320000   153.62466     -2190.7576      0             -1833.3416     -22.437044    
SHAKE stats (type/ave/delta/count) on step 330000
Bond:   1   1         1.7689e-06      9360
Angle:  1   109.47    0.000117246     4680
    330000   155.88423     -2184.7535      0             -1822.0805     -4.0309098    
SHAKE stats (type/ave/delta/count) on step 340000
Bond:   1   1         1.17307e-06     9360
Angle:  1   109.47    0.00011088      4680
    340000   155.14232     -2185.6455      0             -1824.6986     -5.5163362    
SHAKE stats (type/ave/delta/count) on step 350000
Bond:   1   1         1.50806e-06     9360
Angle:  1   109.47    0.000104006     4680
    350000   154.72523     -2191.7042      0             -1831.7277     -14.887001    
SHAKE stats (type/ave/delta/count) on step 360000
Bond:   1   1         1.53101e-06     9360
Angle:  1   109.47    0.000114629     4680
    360000   160.2504      -2188.1811      0             -1815.35       -15.819945    
SHAKE stats (type/ave/delta/count) on step 370000
Bond:   1   1         1.29842e-06     9360
Angle:  1   109.47    9.58416e-05     4680
    370000   156.80139     -2190.974       0             -1826.1672     -15.901436    
SHAKE stats (type/ave/delta/count) on step 380000
Bond:   1   1         1.53367e-06     9360
Angle:  1   109.47    0.000116838     4680
    380000   154.82427     -2200.2685      0             -1840.0615     -17.954002    
SHAKE stats (type/ave/delta/count) on step 390000
Bond:   1   1         1.42359e-06     9360
Angle:  1   109.47    0.000114024     4680
    390000   155.6712      -2182.6776      0             -1820.5002     -28.848073    
SHAKE stats (type/ave/delta/count) on step 400000
Bond:   1   1         1.15349e-06     9360
Angle:  1   109.47    0.000104318     4680
    400000   156.52599     -2184.1467      0             -1819.9807     -22.8126      
SHAKE stats (type/ave/delta/count) on step 410000
Bond:   1   1         1.6016e-06      9360
Angle:  1   109.47    0.000107968     4680
    410000   154.55682     -2190.8269      0             -1831.2423     -18.963635    
SHAKE stats (type/ave/delta/count) on step 420000
Bond:   1   1         1.42049e-06     9360
Angle:  1   109.47    0.000117565     4680
    420000   156.47432     -2191.9128      0             -1827.8669     -17.916309    
SHAKE stats (type/ave/delta/count) on step 430000
Bond:   1   1         1.15512e-06     9360
Angle:  1   109.47    0.000106996     4680
    430000   156.90963     -2186.2524      0             -1821.1937      2.1988432    
SHAKE stats (type/ave/delta/count) on step 440000
Bond:   1   1         1.24624e-06     9360
Angle:  1   109.47    0.000111646     4680
    440000   155.75109     -2185.4192      0             -1823.056      -9.2276441    
SHAKE stats (type/ave/delta/count) on step 450000
Bond:   1   1         1.47563e-06     9360
Angle:  1   109.47    0.000103056     4680
    450000   155.90746     -2188.7198      0             -1825.9928     -9.5616613    
SHAKE stats (type/ave/delta/count) on step 460000
Bond:   1   1         1.12531e-06     9360
Angle:  1   109.47    0.000100895     4680
    460000   154.4325      -2192.7443      0             -1833.4489      2.2433881    
SHAKE stats (type/ave/delta/count) on step 470000
Bond:   1   1         1.16636e-06     9360
Angle:  1   109.47    0.000110837     4680
    470000   155.16199     -2196.3345      0             -1835.3419     -19.456884    
SHAKE stats (type/ave/delta/count) on step 480000
Bond:   1   1         1.35656e-06     9360
Angle:  1   109.47    0.000129523     4680
    480000   152.43901     -2195.3888      0             -1840.7313     -7.4438551    
SHAKE stats (type/ave/delta/count) on step 490000
Bond:   1   1         1.76688e-06     9360
Angle:  1   109.47    0.000100925     4680
    490000   156.86601     -2192.9022      0             -1827.9451     -8.8322524    
SHAKE stats (type/ave/delta/count) on step 500000
Bond:   1   1         1.1898e-06      9360
Angle:  1   109.47    9.55907e-05     4680
    500000   156.01142     -2192.7081      0             -1829.7392     -10.33189     
SHAKE stats (type/ave/delta/count) on step 510000
Bond:   1   1         1.09897e-06     9360
Angle:  1   109.47    0.000103286     4680
    510000   156.50697     -2181.9924      0             -1817.8706     -12.771515    
SHAKE stats (type/ave/delta/count) on step 520000
Bond:   1   1         1.32363e-06     9360
Angle:  1   109.47    0.000110226     4680
    520000   155.94173     -2188.6751      0             -1825.8683      8.0347325    
SHAKE stats (type/ave/delta/count) on step 530000
Bond:   1   1         1.42473e-06     9360
Angle:  1   109.47    0.000101545     4680
    530000   155.3058      -2196.2187      0             -1834.8915     -14.451955    
SHAKE stats (type/ave/delta/count) on step 540000
Bond:   1   1         1.22363e-06     9360
Angle:  1   109.47    9.45439e-05     4680
    540000   155.81528     -2188.5022      0             -1825.9896     -1.6054875    
SHAKE stats (type/ave/delta/count) on step 550000
Bond:   1   1         1.27859e-06     9360
Angle:  1   109.47    9.88207e-05     4680
    550000   156.23031     -2188.4585      0             -1824.9803     -1.9327915    
SHAKE stats (type/ave/delta/count) on step 560000
Bond:   1   1         1.1872e-06      9360
Angle:  1   109.47    9.77199e-05     4680
    560000   156.16326     -2187.3598      0             -1824.0377     -5.5567168    
SHAKE stats (type/ave/delta/count) on step 570000
Bond:   1   1         1.78274e-06     9360
Angle:  1   109.47    0.000122881     4680
    570000   154.77378     -2182.4234      0             -1822.334      -7.9585061    
SHAKE stats (type/ave/delta/count) on step 580000
Bond:   1   1         1.24016e-06     9360
Angle:  1   109.47    9.20834e-05     4680
    580000   156.25289     -2200.0944      0             -1836.5638     -9.1605227    
SHAKE stats (type/ave/delta/count) on step 590000
Bond:   1   1         1.17781e-06     9360
Angle:  1   109.47    9.09812e-05     4680
    590000   155.32848     -2187.3732      0             -1825.9932     -10.435723    
SHAKE stats (type/ave/delta/count) on step 600000
Bond:   1   1         1.18067e-06     9360
Angle:  1   109.47    0.000102031     4680
    600000   156.90485     -2196.3532      0             -1831.3056     -2.4179422    
SHAKE stats (type/ave/delta/count) on step 610000
Bond:   1   1         1.25386e-06     9360
Angle:  1   109.47    9.79668e-05     4680
    610000   154.5784      -2184.1516      0             -1824.5167     -6.0564795    
SHAKE stats (type/ave/delta/count) on step 620000
Bond:   1   1         1.27116e-06     9360
Angle:  1   109.47    9.58001e-05     4680
    620000   155.39088     -2192.3044      0             -1830.7792     -2.894797     
SHAKE stats (type/ave/delta/count) on step 630000
Bond:   1   1         1.51775e-06     9360
Angle:  1   109.47    0.000100046     4680
    630000   152.15694     -2195.9394      0             -1841.9382     -14.143632    
SHAKE stats (type/ave/delta/count) on step 640000
Bond:   1   1         1.32695e-06     9360
Angle:  1   109.47    0.00010632      4680
    640000   157.48075     -2197.0713      0             -1830.684      -7.9507582    
SHAKE stats (type/ave/delta/count) on step 650000
Bond:   1   1         1.98945e-06     9360
Angle:  1   109.47    0.000131119     4680
    650000   156.71649     -2189.7293      0             -1825.12       -18.097404    
SHAKE stats (type/ave/delta/count) on step 660000
Bond:   1   1         1.59424e-06     9360
Angle:  1   109.47    0.000113932     4680
    660000   156.918       -2189.1287      0             -1824.0505     -13.500337    
SHAKE stats (type/ave/delta/count) on step 670000
Bond:   1   1         1.6323e-06      9360
Angle:  1   109.47    0.000112408     4680
    670000   154.27566     -2195.8939      0             -1836.9634     -14.004314    
SHAKE stats (type/ave/delta/count) on step 680000
Bond:   1   1         1.21066e-06     9360
Angle:  1   109.47    9.60995e-05     4680
    680000   157.03773     -2197.3625      0             -1832.0059     -8.4170666    
SHAKE stats (type/ave/delta/count) on step 690000
Bond:   1   1         1.18268e-06     9360
Angle:  1   109.47    0.000112243     4680
    690000   153.89163     -2197.5714      0             -1839.5343     -0.66089921   
SHAKE stats (type/ave/delta/count) on step 700000
Bond:   1   1         1.25269e-06     9360
Angle:  1   109.47    0.000102479     4680
    700000   154.51279     -2194.2135      0             -1834.7312     -16.773416    
SHAKE stats (type/ave/delta/count) on step 710000
Bond:   1   1         1.33019e-06     9360
Angle:  1   109.47    0.000123943     4680
    710000   155.72229     -2192.5201      0             -1830.2239     -19.059902    
SHAKE stats (type/ave/delta/count) on step 720000
Bond:   1   1         1.23037e-06     9360
Angle:  1   109.47    9.26959e-05     4680
    720000   156.22109     -2194.8044      0             -1831.3477     -22.255379    
SHAKE stats (type/ave/delta/count) on step 730000
Bond:   1   1         1.22805e-06     9360
Angle:  1   109.47    0.000110103     4680
    730000   156.7542      -2198.344       0             -1833.647      -13.896135    
SHAKE stats (type/ave/delta/count) on step 740000
Bond:   1   1         1.56259e-06     9360
Angle:  1   109.47    0.000118979     4680
    740000   157.72526     -2190.9452      0             -1823.9889     -15.518759    
SHAKE stats (type/ave/delta/count) on step 750000
Bond:   1   1         1.50757e-06     9360
Angle:  1   109.47    0.000103508     4680
    750000   155.22787     -2192.5785      0             -1831.4326     -2.0780235    
SHAKE stats (type/ave/delta/count) on step 760000
Bond:   1   1         1.19899e-06     9360
Angle:  1   109.47    0.000103988     4680
    760000   157.14874     -2190.0086      0             -1824.3937     -30.583894    
SHAKE stats (type/ave/delta/count) on step 770000
Bond:   1   1         1.37679e-06     9360
Angle:  1   109.47    9.19687e-05     4680
    770000   155.87062     -2192.4687      0             -1829.8274     -1.6782815    
SHAKE stats (type/ave/delta/count) on step 780000
Bond:   1   1         1.30205e-06     9360
Angle:  1   109.47    0.000100408     4680
    780000   155.47686     -2200.1756      0             -1838.4504     -8.3208168    
SHAKE stats (type/ave/delta/count) on step 790000
Bond:   1   1         1.12374e-06     9360
Angle:  1   109.47    9.38641e-05     4680
    790000   154.48731     -2192.4947      0             -1833.0717     -0.7572884    
SHAKE stats (type/ave/delta/count) on step 800000
Bond:   1   1         1.25652e-06     9360
Angle:  1   109.47    9.79008e-05     4680
    800000   156.23879     -2189.0251      0             -1825.5272     -11.262997    
SHAKE stats (type/ave/delta/count) on step 810000
Bond:   1   1         1.36815e-06     9360
Angle:  1   109.47    9.15313e-05     4680
    810000   154.32172     -2193.3188      0             -1834.281       2.9708035    
SHAKE stats (type/ave/delta/count) on step 820000
Bond:   1   1         1.24513e-06     9360
Angle:  1   109.47    9.57594e-05     4680
    820000   157.93079     -2188.5875      0             -1821.1531     -18.989788    
SHAKE stats (type/ave/delta/count) on step 830000
Bond:   1   1         1.36151e-06     9360
Angle:  1   109.47    0.00010484      4680
    830000   156.0579      -2196.8487      0             -1833.7717     -10.643881    
SHAKE stats (type/ave/delta/count) on step 840000
Bond:   1   1         1.45828e-06     9360
Angle:  1   109.47    0.000103694     4680
    840000   156.41651     -2186.3766      0             -1822.4653     -16.610804    
SHAKE stats (type/ave/delta/count) on step 850000
Bond:   1   1         1.43102e-06     9360
Angle:  1   109.47    9.72707e-05     4680
    850000   154.52194     -2191.8141      0             -1832.3105     -15.58585     
SHAKE stats (type/ave/delta/count) on step 860000
Bond:   1   1         1.53083e-06     9360
Angle:  1   109.47    0.000110388     4680
    860000   154.06059     -2189.0156      0             -1830.5854     -10.835072    
SHAKE stats (type/ave/delta/count) on step 870000
Bond:   1   1         1.51562e-06     9360
Angle:  1   109.47    0.000105454     4680
    870000   157.82234     -2182.1439      0             -1814.9618     -3.5355545    
SHAKE stats (type/ave/delta/count) on step 880000
Bond:   1   1         1.37813e-06     9360
Angle:  1   109.47    9.8962e-05      4680
    880000   156.35666     -2192.2903      0             -1828.5182     -14.595898    
SHAKE stats (type/ave/delta/count) on step 890000
Bond:   1   1         1.23911e-06     9360
Angle:  1   109.47    9.95239e-05     4680
    890000   156.45817     -2192.8608      0             -1828.8525     -23.074862    
SHAKE stats (type/ave/delta/count) on step 900000
Bond:   1   1         1.37106e-06     9360
Angle:  1   109.47    0.000102426     4680
    900000   156.00086     -2186.2738      0             -1823.3294     -17.696836    
SHAKE stats (type/ave/delta/count) on step 910000
Bond:   1   1         1.31132e-06     9360
Angle:  1   109.47    9.43633e-05     4680
    910000   156.54326     -2185.0076      0             -1820.8013     -2.2984916    
SHAKE stats (type/ave/delta/count) on step 920000
Bond:   1   1         1.20329e-06     9360
Angle:  1   109.47    0.000102648     4680
    920000   154.6697      -2190.5429      0             -1830.6956      0.25470366   
SHAKE stats (type/ave/delta/count) on step 930000
Bond:   1   1         1.34102e-06     9360
Angle:  1   109.47    9.82315e-05     4680
    930000   153.98687     -2190.1643      0             -1831.9057     -5.1473198    
SHAKE stats (type/ave/delta/count) on step 940000
Bond:   1   1         1.71138e-06     9360
Angle:  1   109.47    0.000104274     4680
    940000   154.71961     -2188.0932      0             -1828.1298     -4.8759514    
SHAKE stats (type/ave/delta/count) on step 950000
Bond:   1   1         1.33366e-06     9360
Angle:  1   109.47    0.000100857     4680
    950000   153.9603      -2188.1705      0             -1829.9736     -2.5411781    
SHAKE stats (type/ave/delta/count) on step 960000
Bond:   1   1         1.2732e-06      9360
Angle:  1   109.47    0.00010047      4680
    960000   156.39695     -2191.9548      0             -1828.0889      2.343108     
SHAKE stats (type/ave/delta/count) on step 970000
Bond:   1   1         1.53468e-06     9360
Angle:  1   109.47    0.000110537     4680
    970000   154.21008     -2189.9856      0             -1831.2076     -18.715603    
SHAKE stats (type/ave/delta/count) on step 980000
Bond:   1   1         1.32404e-06     9360
Angle:  1   109.47    9.72107e-05     4680
    980000   155.89901     -2193.2365      0             -1830.5292     -14.530234    
SHAKE stats (type/ave/delta/count) on step 990000
Bond:   1   1         1.34312e-06     9360
Angle:  1   109.47    9.04597e-05     4680
    990000   155.43879     -2188.623       0             -1826.9864     -1.2766753    
SHAKE stats (type/ave/delta/count) on step 1000000
Bond:   1   1         1.44816e-06     9360
Angle:  1   109.47    9.84381e-05     4680
   1000000   157.60796     -2189.7929      0             -1823.1096     -15.512435    
SHAKE stats (type/ave/delta/count) on step 1010000
Bond:   1   1         1.78614e-06     9360
Angle:  1   109.47    0.000105249     4680
   1010000   154.65504     -2189.1362      0             -1829.323      -7.7261405    
SHAKE stats (type/ave/delta/count) on step 1020000
Bond:   1   1         1.20375e-06     9360
Angle:  1   109.47    0.000103067     4680
   1020000   154.70949     -2195.0496      0             -1835.1097     -18.062266    
SHAKE stats (type/ave/delta/count) on step 1030000
Bond:   1   1         1.18664e-06     9360
Angle:  1   109.47    0.000102812     4680
   1030000   155.73711     -2192.532       0             -1830.2013     -4.8670066    
SHAKE stats (type/ave/delta/count) on step 1040000
Bond:   1   1         1.28232e-06     9360
Angle:  1   109.47    0.00011773      4680
   1040000   156.67546     -2188.7444      0             -1824.2306     -18.171286    
SHAKE stats (type/ave/delta/count) on step 1050000
Bond:   1   1         1.13083e-06     9360
Angle:  1   109.47    9.13238e-05     4680
   1050000   156.31627     -2188.9782      0             -1825.3        -11.68573     
SHAKE stats (type/ave/delta/count) on step 1060000
Bond:   1   1         1.29826e-06     9360
Angle:  1   109.47    9.45092e-05     4680
   1060000   155.73646     -2185.2313      0             -1822.9021     -7.5220629    
SHAKE stats (type/ave/delta/count) on step 1070000
Bond:   1   1         1.2104e-06      9360
Angle:  1   109.47    0.000102085     4680
   1070000   156.06421     -2191.1971      0             -1828.1054     -12.804716    
SHAKE stats (type/ave/delta/count) on step 1080000
Bond:   1   1         1.30026e-06     9360
Angle:  1   109.47    9.21428e-05     4680
   1080000   154.47008     -2193.9472      0             -1834.5643     -9.4951203    
SHAKE stats (type/ave/delta/count) on step 1090000
Bond:   1   1         1.31696e-06     9360
Angle:  1   109.47    0.000100179     4680
   1090000   157.52195     -2191.2511      0             -1824.7678     -15.786436    
SHAKE stats (type/ave/delta/count) on step 1100000
Bond:   1   1         1.83853e-06     9360
Angle:  1   109.47    0.000110399     4680
   1100000   155.4885      -2201.2563      0             -1839.504      -16.256758    
SHAKE stats (type/ave/delta/count) on step 1110000
Bond:   1   1         1.08136e-06     9360
Angle:  1   109.47    9.60923e-05     4680
   1110000   156.12746     -2196.3785      0             -1833.1397     -14.294501    
SHAKE stats (type/ave/delta/count) on step 1120000
Bond:   1   1         1.21527e-06     9360
Angle:  1   109.47    9.63442e-05     4680
   1120000   158.68208     -2195.9179      0             -1826.7355     -7.6019129    
SHAKE stats (type/ave/delta/count) on step 1130000
Bond:   1   1         1.34139e-06     9360
Angle:  1   109.47    9.52356e-05     4680
   1130000   158.49822     -2186.6479      0             -1817.8933     -3.6584772    
SHAKE stats (type/ave/delta/count) on step 1140000
Bond:   1   1         1.64179e-06     9360
Angle:  1   109.47    0.000107883     4680
   1140000   155.37906     -2189.5761      0             -1828.0785     -21.541033    
SHAKE stats (type/ave/delta/count) on step 1150000
Bond:   1   1         1.28618e-06     9360
Angle:  1   109.47    9.85656e-05     4680
   1150000   154.63281     -2196.5758      0             -1836.8143     -17.16051     
SHAKE stats (type/ave/delta/count) on step 1160000
Bond:   1   1         1.27868e-06     9360
Angle:  1   109.47    9.11457e-05     4680
   1160000   155.44187     -2191.2797      0             -1829.6358     -11.505726    
SHAKE stats (type/ave/delta/count) on step 1170000
Bond:   1   1         1.20202e-06     9360
Angle:  1   109.47    0.000102002     4680
   1170000   157.75603     -2189.519       0             -1822.4912     -12.912163    
SHAKE stats (type/ave/delta/count) on step 1180000
Bond:   1   1         1.57975e-06     9360
Angle:  1   109.47    0.000108145     4680
   1180000   156.78591     -2187.7255      0             -1822.9548     -9.2641511    
SHAKE stats (type/ave/delta/count) on step 1190000
Bond:   1   1         1.27491e-06     9360
Angle:  1   109.47    9.96244e-05     4680
   1190000   156.70613     -2194.1291      0             -1829.5439     -5.8854141    
SHAKE stats (type/ave/delta/count) on step 1200000
Bond:   1   1         1.49059e-06     9360
Angle:  1   109.47    9.80333e-05     4680
   1200000   158.4258      -2200.8172      0             -1832.2311     -15.393943    
SHAKE stats (type/ave/delta/count) on step 1210000
Bond:   1   1         1.34759e-06     9360
Angle:  1   109.47    0.000106596     4680
   1210000   153.22654     -2189.6583      0             -1833.1686      1.3278239    
SHAKE stats (type/ave/delta/count) on step 1220000
Bond:   1   1         1.60446e-06     9360
Angle:  1   109.47    0.00012716      4680
   1220000   154.99846     -2195.4615      0             -1834.8493     -24.972311    
SHAKE stats (type/ave/delta/count) on step 1230000
Bond:   1   1         1.25202e-06     9360
Angle:  1   109.47    0.00011501      4680
   1230000   158.60714     -2186.0605      0             -1817.0525     -13.881529    
SHAKE stats (type/ave/delta/count) on step 1240000
Bond:   1   1         1.58945e-06     9360
Angle:  1   109.47    0.000117736     4680
   1240000   155.46855     -2189.1851      0             -1827.4792     -11.174855    
SHAKE stats (type/ave/delta/count) on step 1250000
Bond:   1   1         1.25634e-06     9360
Angle:  1   109.47    9.66549e-05     4680
   1250000   154.22646     -2184.5346      0             -1825.7185     -20.704086    
SHAKE stats (type/ave/delta/count) on step 1260000
Bond:   1   1         1.70778e-06     9360
Angle:  1   109.47    0.000113523     4680
   1260000   154.1264      -2189.0407      0             -1830.4575     -6.1647959    
SHAKE stats (type/ave/delta/count) on step 1270000
Bond:   1   1         1.31025e-06     9360
Angle:  1   109.47    9.81684e-05     4680
   1270000   152.6275      -2197.7719      0             -1842.6759     -10.44572     
SHAKE stats (type/ave/delta/count) on step 1280000
Bond:   1   1         1.32137e-06     9360
Angle:  1   109.47    0.000110959     4680
   1280000   155.93896     -2199.0641      0             -1836.2637      4.3010869    
SHAKE stats (type/ave/delta/count) on step 1290000
Bond:   1   1         1.18882e-06     9360
Angle:  1   109.47    9.75804e-05     4680
   1290000   158.2071      -2203.3162      0             -1835.239      -8.2955919    
SHAKE stats (type/ave/delta/count) on step 1300000
Bond:   1   1         1.43818e-06     9360
Angle:  1   109.47    0.000104766     4680
   1300000   157.0058      -2194.1722      0             -1828.8899      1.3204549    
SHAKE stats (type/ave/delta/count) on step 1310000
Bond:   1   1         1.24692e-06     9360
Angle:  1   109.47    0.000106144     4680
   1310000   155.93922     -2202.0345      0             -1839.2336     -18.305417    
SHAKE stats (type/ave/delta/count) on step 1320000
Bond:   1   1         1.62715e-06     9360
Angle:  1   109.47    0.000111925     4680
   1320000   155.42598     -2186.4544      0             -1824.8475     -7.4926583    
SHAKE stats (type/ave/delta/count) on step 1330000
Bond:   1   1         1.22848e-06     9360
Angle:  1   109.47    0.000104273     4680
   1330000   155.83458     -2193.5554      0             -1830.9979     -9.617147     
SHAKE stats (type/ave/delta/count) on step 1340000
Bond:   1   1         1.35534e-06     9360
Angle:  1   109.47    0.000112034     4680
   1340000   155.02953     -2183.1976      0             -1822.5131     -12.5525      
SHAKE stats (type/ave/delta/count) on step 1350000
Bond:   1   1         1.27103e-06     9360
Angle:  1   109.47    9.53566e-05     4680
   1350000   156.57865     -2192.9817      0             -1828.6932     -10.015349    
SHAKE stats (type/ave/delta/count) on step 1360000
Bond:   1   1         1.46281e-06     9360
Angle:  1   109.47    0.000103787     4680
   1360000   155.34679     -2192.9185      0             -1831.4959     -1.2360046    
SHAKE stats (type/ave/delta/count) on step 1370000
Bond:   1   1         1.34792e-06     9360
Angle:  1   109.47    9.68173e-05     4680
   1370000   154.8794      -2192.6836      0             -1832.3484     -5.2580169    
SHAKE stats (type/ave/delta/count) on step 1380000
Bond:   1   1         1.28172e-06     9360
Angle:  1   109.47    9.5098e-05      4680
   1380000   157.0467      -2191.8125      0             -1826.4349     -12.320143    
SHAKE stats (type/ave/delta/count) on step 1390000
Bond:   1   1         1.11342e-06     9360
Angle:  1   109.47    0.000100452     4680
   1390000   154.70729     -2199.0435      0             -1839.1087     -30.962383    
SHAKE stats (type/ave/delta/count) on step 1400000
Bond:   1   1         1.72481e-06     9360
Angle:  1   109.47    9.62905e-05     4680
   1400000   157.50037     -2188.1535      0             -1821.7205     -1.8481341    
SHAKE stats (type/ave/delta/count) on step 1410000
Bond:   1   1         1.29576e-06     9360
Angle:  1   109.47    9.47906e-05     4680
   1410000   156.53597     -2196.8231      0             -1832.6338     -10.39617     
SHAKE stats (type/ave/delta/count) on step 1420000
Bond:   1   1         1.39762e-06     9360
Angle:  1   109.47    9.47751e-05     4680
   1420000   153.85418     -2190.0135      0             -1832.0635     -12.588678    
SHAKE stats (type/ave/delta/count) on step 1430000
Bond:   1   1         1.37347e-06     9360
Angle:  1   109.47    0.000113941     4680
   1430000   157.30502     -2190.8785      0             -1824.9         5.0939869    
SHAKE stats (type/ave/delta/count) on step 1440000
Bond:   1   1         1.21317e-06     9360
Angle:  1   109.47    9.65497e-05     4680
   1440000   155.43608     -2196.1603      0             -1834.53       -16.238137    
SHAKE stats (type/ave/delta/count) on step 1450000
Bond:   1   1         1.30863e-06     9360
Angle:  1   109.47    0.000102798     4680
   1450000   155.21145     -2188.7119      0             -1827.6042     -24.72893     
SHAKE stats (type/ave/delta/count) on step 1460000
Bond:   1   1         1.25216e-06     9360
Angle:  1   109.47    0.000104052     4680
   1460000   156.48774     -2196.3447      0             -1832.2676     -14.572125    
SHAKE stats (type/ave/delta/count) on step 1470000
Bond:   1   1         1.22376e-06     9360
Angle:  1   109.47    0.000101834     4680
   1470000   154.29156     -2190.2112      0             -1831.2436     -11.445067    
SHAKE stats (type/ave/delta/count) on step 1480000
Bond:   1   1         1.30312e-06     9360
Angle:  1   109.47    9.59689e-05     4680
   1480000   159.18609     -2190.0204      0             -1819.6654     -13.817776    
SHAKE stats (type/ave/delta/count) on step 1490000
Bond:   1   1         1.26819e-06     9360
Angle:  1   109.47    0.000100131     4680
   1490000   156.05252     -2191.9117      0             -1828.8472     -18.337712    
SHAKE stats (type/ave/delta/count) on step 1500000
Bond:   1   1         1.14342e-06     9360
Angle:  1   109.47    9.59669e-05     4680
   1500000   156.2303      -2190.1254      0             -1826.6473      11.966214    
SHAKE stats (type/ave/delta/count) on step 1510000
Bond:   1   1         1.18483e-06     9360
Angle:  1   109.47    9.92164e-05     4680
   1510000   154.08023     -2188.0079      0             -1829.532       7.568013     
SHAKE stats (type/ave/delta/count) on step 1520000
Bond:   1   1         1.45314e-06     9360
Angle:  1   109.47    9.87689e-05     4680
   1520000   155.00708     -2189.2203      0             -1828.588      -8.9876612    
SHAKE stats (type/ave/delta/count) on step 1530000
Bond:   1   1         1.87902e-06     9360
Angle:  1   109.47    0.000118763     4680
   1530000   154.50286     -2194.583       0             -1835.1239      0.48160014   
SHAKE stats (type/ave/delta/count) on step 1540000
Bond:   1   1         1.26391e-06     9360
Angle:  1   109.47    9.8159e-05      4680
   1540000   153.08186     -2186.6351      0             -1830.482      -3.5629709    
SHAKE stats (type/ave/delta/count) on step 1550000
Bond:   1   1         1.66305e-06     9360
Angle:  1   109.47    0.000125192     4680
   1550000   154.0172      -2191.9051      0             -1833.5759     -3.3247424    
SHAKE stats (type/ave/delta/count) on step 1560000
Bond:   1   1         1.21919e-06     9360
Angle:  1   109.47    0.000105007     4680
   1560000   156.24524     -2185.7241      0             -1822.2112     -21.394018    
SHAKE stats (type/ave/delta/count) on step 1570000
Bond:   1   1         1.23085e-06     9360
Angle:  1   109.47    9.84852e-05     4680
   1570000   155.22547     -2184.1904      0             -1823.0501     -8.5406002    
SHAKE stats (type/ave/delta/count) on step 1580000
Bond:   1   1         1.20291e-06     9360
Angle:  1   109.47    9.6905e-05      4680
   1580000   155.62858     -2187.7358      0             -1825.6577      0.036666282  
SHAKE stats (type/ave/delta/count) on step 1590000
Bond:   1   1         1.21179e-06     9360
Angle:  1   109.47    0.000100409     4680
   1590000   154.93794     -2193.2486      0             -1832.7772     -23.703931    
SHAKE stats (type/ave/delta/count) on step 1600000
Bond:   1   1         1.32831e-06     9360
Angle:  1   109.47    9.97816e-05     4680
   1600000   157.20355     -2200.3937      0             -1834.6512     -9.9905908    
SHAKE stats (type/ave/delta/count) on step 1610000
Bond:   1   1         1.28046e-06     9360
Angle:  1   109.47    0.000105413     4680
   1610000   156.75432     -2197.0369      0             -1832.3396     -7.9566866    
SHAKE stats (type/ave/delta/count) on step 1620000
Bond:   1   1         1.32976e-06     9360
Angle:  1   109.47    0.000107198     4680
   1620000   157.88151     -2188.0528      0             -1820.733       4.9793232    
SHAKE stats (type/ave/delta/count) on step 1630000
Bond:   1   1         1.30899e-06     9360
Angle:  1   109.47    9.92112e-05     4680
   1630000   158.7067      -2189.8667      0             -1820.6271     -4.5994037    
SHAKE stats (type/ave/delta/count) on step 1640000
Bond:   1   1         1.59606e-06     9360
Angle:  1   109.47    0.000116582     4680
   1640000   155.30259     -2188.6986      0             -1827.3789      5.835082     
SHAKE stats (type/ave/delta/count) on step 1650000
Bond:   1   1         1.16698e-06     9360
Angle:  1   109.47    9.7071e-05      4680
   1650000   157.73919     -2195.6211      0             -1828.6325     -16.606748    
SHAKE stats (type/ave/delta/count) on step 1660000
Bond:   1   1         1.16684e-06     9360
Angle:  1   109.47    0.000101845     4680
   1660000   153.77969     -2190.3497      0             -1832.5731     -12.800394    
SHAKE stats (type/ave/delta/count) on step 1670000
Bond:   1   1         1.17867e-06     9360
Angle:  1   109.47    0.000114953     4680
   1670000   157.33649     -2192.7566      0             -1826.7048     -9.4726232    
SHAKE stats (type/ave/delta/count) on step 1680000
Bond:   1   1         1.31365e-06     9360
Angle:  1   109.47    9.45556e-05     4680
   1680000   155.31998     -2182.2772      0             -1820.917      -13.863911    
SHAKE stats (type/ave/delta/count) on step 1690000
Bond:   1   1         1.24982e-06     9360
Angle:  1   109.47    9.76878e-05     4680
   1690000   154.8155      -2190.0165      0             -1829.83       -13.962874    
SHAKE stats (type/ave/delta/count) on step 1700000
Bond:   1   1         1.32992e-06     9360
Angle:  1   109.47    9.89564e-05     4680
   1700000   155.20561     -2193.7957      0             -1832.7016     -21.103979    
SHAKE stats (type/ave/delta/count) on step 1710000
Bond:   1   1         1.40362e-06     9360
Angle:  1   109.47    0.000101008     4680
   1710000   154.86816     -2190.5237      0             -1830.2147     -8.5298011    
SHAKE stats (type/ave/delta/count) on step 1720000
Bond:   1   1         1.30704e-06     9360
Angle:  1   109.47    0.000112634     4680
   1720000   154.63733     -2195.8914      0             -1836.1194     -18.139587    
SHAKE stats (type/ave/delta/count) on step 1730000
Bond:   1   1         1.47245e-06     9360
Angle:  1   109.47    9.67855e-05     4680
   1730000   156.62178     -2187.2861      0             -1822.8971     -3.1818159    
SHAKE stats (type/ave/delta/count) on step 1740000
Bond:   1   1         1.2614e-06      9360
Angle:  1   109.47    0.000102233     4680
   1740000   156.46608     -2187.1017      0             -1823.075      -19.663452    
SHAKE stats (type/ave/delta/count) on step 1750000
Bond:   1   1         1.40184e-06     9360
Angle:  1   109.47    0.000105116     4680
   1750000   156.1629      -2190.1243      0             -1826.803       3.058394     
SHAKE stats (type/ave/delta/count) on step 1760000
Bond:   1   1         1.28853e-06     9360
Angle:  1   109.47    0.000101411     4680
   1760000   155.93286     -2197.7819      0             -1834.9958     -16.34951     
SHAKE stats (type/ave/delta/count) on step 1770000
Bond:   1   1         1.29012e-06     9360
Angle:  1   109.47    9.80274e-05     4680
   1770000   155.93722     -2193.1515      0             -1830.3552     -11.645931    
SHAKE stats (type/ave/delta/count) on step 1780000
Bond:   1   1         1.48424e-06     9360
Angle:  1   109.47    0.000109466     4680
   1780000   156.28579     -2188.041       0             -1824.4338     -9.0614485    
SHAKE stats (type/ave/delta/count) on step 1790000
Bond:   1   1         1.2758e-06      9360
Angle:  1   109.47    0.000100175     4680
   1790000   155.83545     -2186.6071      0             -1824.0476     -16.311224    
SHAKE stats (type/ave/delta/count) on step 1800000
Bond:   1   1         1.44174e-06     9360
Angle:  1   109.47    0.000100212     4680
   1800000   156.00475     -2184.6834      0             -1821.73       -15.366176    
SHAKE stats (type/ave/delta/count) on step 1810000
Bond:   1   1         1.317e-06       9360
Angle:  1   109.47    9.14945e-05     4680
   1810000   155.91509     -2181.9092      0             -1819.1644     -3.9888736    
SHAKE stats (type/ave/delta/count) on step 1820000
Bond:   1   1         1.31888e-06     9360
Angle:  1   109.47    0.000102148     4680
   1820000   156.57511     -2189.7591      0             -1825.4788     -17.879116    
SHAKE stats (type/ave/delta/count) on step 1830000
Bond:   1   1         1.40142e-06     9360
Angle:  1   109.47    0.000104002     4680
   1830000   155.53614     -2189.2279      0             -1827.3648     -1.8169062    
SHAKE stats (type/ave/delta/count) on step 1840000
Bond:   1   1         1.43468e-06     9360
Angle:  1   109.47    0.000111143     4680
   1840000   157.07422     -2193.617       0             -1828.1755      2.7846977    
SHAKE stats (type/ave/delta/count) on step 1850000
Bond:   1   1         1.33335e-06     9360
Angle:  1   109.47    0.000102584     4680
   1850000   157.67931     -2193.9059      0             -1827.0565     -19.742449    
SHAKE stats (type/ave/delta/count) on step 1860000
Bond:   1   1         1.49719e-06     9360
Angle:  1   109.47    0.000104299     4680
   1860000   157.47661     -2185.4147      0             -1819.037      -5.198171     
SHAKE stats (type/ave/delta/count) on step 1870000
Bond:   1   1         1.54024e-06     9360
Angle:  1   109.47    9.14224e-05     4680
   1870000   155.23673     -2189.5656      0             -1828.3991     -8.447619     
SHAKE stats (type/ave/delta/count) on step 1880000
Bond:   1   1         1.11891e-06     9360
Angle:  1   109.47    9.70142e-05     4680
   1880000   155.25183     -2197.5993      0             -1836.3976     -12.048488    
SHAKE stats (type/ave/delta/count) on step 1890000
Bond:   1   1         1.30918e-06     9360
Angle:  1   109.47    9.20503e-05     4680
   1890000   155.84403     -2195.2058      0             -1832.6263     -12.252732    
SHAKE stats (type/ave/delta/count) on step 1900000
Bond:   1   1         1.34287e-06     9360
Angle:  1   109.47    0.000124814     4680
   1900000   156.12144     -2193.1929      0             -1829.9681     -21.220052    
SHAKE stats (type/ave/delta/count) on step 1910000
Bond:   1   1         1.22096e-06     9360
Angle:  1   109.47    9.94815e-05     4680
   1910000   156.97346     -2196.8785      0             -1831.6714      1.9165001    
SHAKE stats (type/ave/delta/count) on step 1920000
Bond:   1   1         1.39476e-06     9360
Angle:  1   109.47    9.46842e-05     4680
   1920000   155.23748     -2190.246       0             -1829.0777     -3.9750959    
SHAKE stats (type/ave/delta/count) on step 1930000
Bond:   1   1         1.31381e-06     9360
Angle:  1   109.47    0.000101063     4680
   1930000   155.83763     -2187.0288      0             -1824.4643     -16.489874    
SHAKE stats (type/ave/delta/count) on step 1940000
Bond:   1   1         1.2251e-06      9360
Angle:  1   109.47    9.94494e-05     4680
   1940000   157.4173      -2193.7711      0             -1827.5314     -13.24759     
SHAKE stats (type/ave/delta/count) on step 1950000
Bond:   1   1         1.57789e-06     9360
Angle:  1   109.47    0.000112082     4680
   1950000   156.20306     -2191.7628      0             -1828.348      -7.3994779    
SHAKE stats (type/ave/delta/count) on step 1960000
Bond:   1   1         1.25706e-06     9360
Angle:  1   109.47    9.4429e-05      4680
   1960000   157.47656     -2188.5152      0             -1822.1376     -7.8499278    
SHAKE stats (type/ave/delta/count) on step 1970000
Bond:   1   1         1.14707e-06     9360
Angle:  1   109.47    0.0001047       4680
   1970000   156.4311      -2191.1686      0             -1827.2233     -4.9403615    
SHAKE stats (type/ave/delta/count) on step 1980000
Bond:   1   1         1.23342e-06     9360
Angle:  1   109.47    9.83141e-05     4680
   1980000   154.5463      -2191.2491      0             -1831.6889     -18.627621    
SHAKE stats (type/ave/delta/count) on step 1990000
Bond:   1   1         1.25509e-06     9360
Angle:  1   109.47    9.32435e-05     4680
   1990000   155.76135     -2193.3015      0             -1830.9144      3.4282418    
SHAKE stats (type/ave/delta/count) on step 2000000
Bond:   1   1         1.55548e-06     9360
Angle:  1   109.47    0.000101509     4680
   2000000   158.31659     -2190.9556      0             -1822.6236     -32.015916    
SHAKE stats (type/ave/delta/count) on step 2010000
Bond:   1   1         1.25267e-06     9360
Angle:  1   109.47    9.65901e-05     4680
   2010000   153.88218     -2195.0016      0             -1836.9865     -11.066673    
SHAKE stats (type/ave/delta/count) on step 2020000
Bond:   1   1         1.33809e-06     9360
Angle:  1   109.47    9.64154e-05     4680
   2020000   158.6306      -2190.0498      0             -1820.9872     -8.9275015    
SHAKE stats (type/ave/delta/count) on step 2030000
Bond:   1   1         1.50852e-06     9360
Angle:  1   109.47    0.000107194     4680
   2030000   155.71671     -2192.9879      0             -1830.7046     -19.105229    
SHAKE stats (type/ave/delta/count) on step 2040000
Bond:   1   1         1.44945e-06     9360
Angle:  1   109.47    0.000121676     4680
   2040000   156.39094     -2187.6128      0             -1823.761      -23.807316    
SHAKE stats (type/ave/delta/count) on step 2050000
Bond:   1   1         1.41477e-06     9360
Angle:  1   109.47    0.000121564     4680
   2050000   156.33544     -2194.162       0             -1830.4393     -11.88897     
SHAKE stats (type/ave/delta/count) on step 2060000
Bond:   1   1         1.38963e-06     9360
Angle:  1   109.47    0.000103605     4680
   2060000   156.19947     -2197.1077      0             -1833.7012     -27.00569     
SHAKE stats (type/ave/delta/count) on step 2070000
Bond:   1   1         1.36503e-06     9360
Angle:  1   109.47    9.68886e-05     4680
   2070000   155.91865     -2190.6132      0             -1827.8601     -14.166433    
SHAKE stats (type/ave/delta/count) on step 2080000
Bond:   1   1         1.35305e-06     9360
Angle:  1   109.47    0.000106642     4680
   2080000   155.97563     -2176.7091      0             -1813.8235     -12.184451    
SHAKE stats (type/ave/delta/count) on step 2090000
Bond:   1   1         1.34653e-06     9360
Angle:  1   109.47    9.41828e-05     4680
   2090000   155.57417     -2195.4285      0             -1833.4769     -7.8187474    
SHAKE stats (type/ave/delta/count) on step 2100000
Bond:   1   1         1.24879e-06     9360
Angle:  1   109.47    0.000100513     4680
   2100000   153.73262     -2196.3196      0             -1838.6525      5.1398273    
SHAKE stats (type/ave/delta/count) on step 2110000
Bond:   1   1         1.2551e-06      9360
Angle:  1   109.47    9.90372e-05     4680
   2110000   156.67639     -2183.1249      0             -1818.6089     -29.788863    
SHAKE stats (type/ave/delta/count) on step 2120000
Bond:   1   1         1.34907e-06     9360
Angle:  1   109.47    9.96744e-05     4680
   2120000   155.27532     -2197.8771      0             -1836.6208     -7.5926107    
SHAKE stats (type/ave/delta/count) on step 2130000
Bond:   1   1         1.36025e-06     9360
Angle:  1   109.47    0.000111897     4680
   2130000   153.03574     -2186.6954      0             -1830.6496     -12.820549    
SHAKE stats (type/ave/delta/count) on step 2140000
Bond:   1   1         1.31178e-06     9360
Angle:  1   109.47    9.78921e-05     4680
   2140000   153.76117     -2192.6042      0             -1834.8706     -4.0340208    
SHAKE stats (type/ave/delta/count) on step 2150000
Bond:   1   1         1.41317e-06     9360
Angle:  1   109.47    0.000103062     4680
   2150000   154.80712     -2194.8223      0             -1834.6553     -14.621839    
SHAKE stats (type/ave/delta/count) on step 2160000
Bond:   1   1         1.28581e-06     9360
Angle:  1   109.47    9.73662e-05     4680
   2160000   154.2904      -2192.6752      0             -1833.7104     -4.7893431    
SHAKE stats (type/ave/delta/count) on step 2170000
Bond:   1   1         1.13041e-06     9360
Angle:  1   109.47    8.78807e-05     4680
   2170000   156.57796     -2198.8536      0             -1834.5667     -7.1166252    
SHAKE stats (type/ave/delta/count) on step 2180000
Bond:   1   1         1.08391e-06     9360
Angle:  1   109.47    9.64438e-05     4680
   2180000   156.9498      -2193.0064      0             -1827.8543     -12.091535    
SHAKE stats (type/ave/delta/count) on step 2190000
Bond:   1   1         1.33805e-06     9360
Angle:  1   109.47    0.00010313      4680
   2190000   156.67661     -2192.0323      0             -1827.5158     -12.499299    
SHAKE stats (type/ave/delta/count) on step 2200000
Bond:   1   1         1.1574e-06      9360
Angle:  1   109.47    0.000102972     4680
   2200000   157.80538     -2188.3686      0             -1821.2259     -5.1190859    
SHAKE stats (type/ave/delta/count) on step 2210000
Bond:   1   1         1.24326e-06     9360
Angle:  1   109.47    0.000100343     4680
   2210000   157.04045     -2190.1484      0             -1824.7854     -7.0523111    
SHAKE stats (type/ave/delta/count) on step 2220000
Bond:   1   1         1.30494e-06     9360
Angle:  1   109.47    0.000107068     4680
   2220000   157.80361     -2191.981       0             -1824.8425     -1.7178216    
SHAKE stats (type/ave/delta/count) on step 2230000
Bond:   1   1         1.18592e-06     9360
Angle:  1   109.47    9.10809e-05     4680
   2230000   154.83119     -2190.9386      0             -1830.7156     -29.713717    
SHAKE stats (type/ave/delta/count) on step 2240000
Bond:   1   1         1.53579e-06     9360
Angle:  1   109.47    0.00010904      4680
   2240000   155.8436      -2185.3303      0             -1822.7518     -12.459802    
SHAKE stats (type/ave/delta/count) on step 2250000
Bond:   1   1         1.18961e-06     9360
Angle:  1   109.47    0.000108174     4680
   2250000   156.6958      -2188.3063      0             -1823.7451     -6.3266489    
SHAKE stats (type/ave/delta/count) on step 2260000
Bond:   1   1         1.5378e-06      9360
Angle:  1   109.47    0.000103595     4680
   2260000   155.54275     -2181.9166      0             -1820.0381     -18.874823    
SHAKE stats (type/ave/delta/count) on step 2270000
Bond:   1   1         1.22039e-06     9360
Angle:  1   109.47    9.39588e-05     4680
   2270000   157.71479     -2190.4685      0             -1823.5366     -18.087642    
SHAKE stats (type/ave/delta/count) on step 2280000
Bond:   1   1         1.36481e-06     9360
Angle:  1   109.47    9.85863e-05     4680
   2280000   157.85167     -2180.7731      0             -1813.5228     -7.1946188    
SHAKE stats (type/ave/delta/count) on step 2290000
Bond:   1   1         1.27307e-06     9360
Angle:  1   109.47    0.000129773     4680
   2290000   155.74778     -2191.7903      0             -1829.4348     -4.2376809    
SHAKE stats (type/ave/delta/count) on step 2300000
Bond:   1   1         1.55446e-06     9360
Angle:  1   109.47    0.000103038     4680
   2300000   153.37377     -2187.5723      0             -1830.74       -25.999194    
SHAKE stats (type/ave/delta/count) on step 2310000
Bond:   1   1         1.17483e-06     9360
Angle:  1   109.47    0.000116507     4680
   2310000   157.46601     -2188.9146      0             -1822.5615      4.9926435    
SHAKE stats (type/ave/delta/count) on step 2320000
Bond:   1   1         1.28143e-06     9360
Angle:  1   109.47    0.000103921     4680
   2320000   157.05991     -2187.49        0             -1822.0818     -16.608871    
SHAKE stats (type/ave/delta/count) on step 2330000
Bond:   1   1         1.54171e-06     9360
Angle:  1   109.47    9.40876e-05     4680
   2330000   155.89506     -2186.2416      0             -1823.5434      4.2577461    
SHAKE stats (type/ave/delta/count) on step 2340000
Bond:   1   1         1.11271e-06     9360
Angle:  1   109.47    9.72543e-05     4680
   2340000   151.75293     -2186.7852      0             -1833.7239     -23.547622    
SHAKE stats (type/ave/delta/count) on step 2350000
Bond:   1   1         1.17996e-06     9360
Angle:  1   109.47    9.95448e-05     4680
   2350000   154.99043     -2195.3421      0             -1834.7486     -18.070754    
SHAKE stats (type/ave/delta/count) on step 2360000
Bond:   1   1         1.42006e-06     9360
Angle:  1   109.47    9.4051e-05      4680
   2360000   158.00038     -2184.5809      0             -1816.9845     -6.1536227    
SHAKE stats (type/ave/delta/count) on step 2370000
Bond:   1   1         1.32577e-06     9360
Angle:  1   109.47    0.000101643     4680
   2370000   156.09332     -2194.5278      0             -1831.3684     -2.5692315    
SHAKE stats (type/ave/delta/count) on step 2380000
Bond:   1   1         1.67132e-06     9360
Angle:  1   109.47    0.00012756      4680
   2380000   154.11211     -2190.2832      0             -1831.7332     -4.5939914    
SHAKE stats (type/ave/delta/count) on step 2390000
Bond:   1   1         1.32213e-06     9360
Angle:  1   109.47    0.000108442     4680
   2390000   154.43626     -2190.4654      0             -1831.1612     -12.535391    
SHAKE stats (type/ave/delta/count) on step 2400000
Bond:   1   1         1.14667e-06     9360
Angle:  1   109.47    9.61807e-05     4680
   2400000   157.64063     -2187.863       0             -1821.1037     -7.0788578    
SHAKE stats (type/ave/delta/count) on step 2410000
Bond:   1   1         1.40781e-06     9360
Angle:  1   109.47    0.000103428     4680
   2410000   156.49343     -2185.136       0             -1821.0457      1.6651751    
SHAKE stats (type/ave/delta/count) on step 2420000
Bond:   1   1         1.27863e-06     9360
Angle:  1   109.47    9.52567e-05     4680
   2420000   158.17692     -2192.1131      0             -1824.1061     -4.7031547    
SHAKE stats (type/ave/delta/count) on step 2430000
Bond:   1   1         1.54912e-06     9360
Angle:  1   109.47    9.90431e-05     4680
   2430000   154.90312     -2190.7556      0             -1830.3653     -13.529556    
SHAKE stats (type/ave/delta/count) on step 2440000
Bond:   1   1         1.19871e-06     9360
Angle:  1   109.47    9.99887e-05     4680
   2440000   155.21343     -2184.442       0             -1823.3297     -6.1413923    
SHAKE stats (type/ave/delta/count) on step 2450000
Bond:   1   1         1.36388e-06     9360
Angle:  1   109.47    0.000108948     4680
   2450000   157.00343     -2188.2909      0             -1823.014      -0.54331608   
SHAKE stats (type/ave/delta/count) on step 2460000
Bond:   1   1         1.70141e-06     9360
Angle:  1   109.47    0.00010311      4680
   2460000   157.83627     -2192.3149      0             -1825.1003     -24.197811    
SHAKE stats (type/ave/delta/count) on step 2470000
Bond:   1   1         1.28784e-06     9360
Angle:  1   109.47    0.000100877     4680
   2470000   157.41919     -2185.0337      0             -1818.7895     -5.9233172    
SHAKE stats (type/ave/delta/count) on step 2480000
Bond:   1   1         1.23005e-06     9360
Angle:  1   109.47    9.21223e-05     4680
   2480000   156.80413     -2197.246       0             -1832.4328     -14.523561    
SHAKE stats (type/ave/delta/count) on step 2490000
Bond:   1   1         1.17964e-06     9360
Angle:  1   109.47    0.000113294     4680
   2490000   156.34256     -2194.1867      0             -1830.4474     -8.4958649    
SHAKE stats (type/ave/delta/count) on step 2500000
Bond:   1   1         1.34747e-06     9360
Angle:  1   109.47    0.000120075     4680
   2500000   158.9558      -2182.5069      0             -1812.6878     -10.555367    
SHAKE stats (type/ave/delta/count) on step 2510000
Bond:   1   1         1.27679e-06     9360
Angle:  1   109.47    9.96916e-05     4680
   2510000   158.71391     -2194.0553      0             -1824.7989     -8.9744173    
SHAKE stats (type/ave/delta/count) on step 2520000
Bond:   1   1         1.27974e-06     9360
Angle:  1   109.47    9.52903e-05     4680
   2520000   154.83568     -2189.3394      0             -1829.1059     -6.7287959    
SHAKE stats (type/ave/delta/count) on step 2530000
Bond:   1   1         1.20165e-06     9360
Angle:  1   109.47    9.91247e-05     4680
   2530000   155.77443     -2187.2491      0             -1824.8316     -12.056591    
SHAKE stats (type/ave/delta/count) on step 2540000
Bond:   1   1         1.65757e-06     9360
Angle:  1   109.47    0.000129311     4680
   2540000   155.21189     -2190.0195      0             -1828.9108     -7.1291945    
SHAKE stats (type/ave/delta/count) on step 2550000
Bond:   1   1         1.11371e-06     9360
Angle:  1   109.47    0.000102476     4680
   2550000   153.30369     -2184.3715      0             -1827.7023     -13.940884    
SHAKE stats (type/ave/delta/count) on step 2560000
Bond:   1   1         1.29233e-06     9360
Angle:  1   109.47    9.19345e-05     4680
   2560000   155.87378     -2178.4197      0             -1815.771      -11.254867    
SHAKE stats (type/ave/delta/count) on step 2570000
Bond:   1   1         1.21388e-06     9360
Angle:  1   109.47    9.18008e-05     4680
   2570000   157.20195     -2190.0123      0             -1824.2736     -7.038571     
SHAKE stats (type/ave/delta/count) on step 2580000
Bond:   1   1         1.45816e-06     9360
Angle:  1   109.47    0.000102437     4680
   2580000   156.89898     -2187.9384      0             -1822.9046     -6.7149002    
SHAKE stats (type/ave/delta/count) on step 2590000
Bond:   1   1         1.20909e-06     9360
Angle:  1   109.47    9.97793e-05     4680
   2590000   156.36233     -2186.661       0             -1822.8757     -15.542999    
SHAKE stats (type/ave/delta/count) on step 2600000
Bond:   1   1         1.37941e-06     9360
Angle:  1   109.47    0.000104955     4680
   2600000   157.94612     -2190.3694      0             -1822.8993      2.2329639    
SHAKE stats (type/ave/delta/count) on step 2610000
Bond:   1   1         1.14785e-06     9360
Angle:  1   109.47    9.83728e-05     4680
   2610000   157.59174     -2185.5224      0             -1818.8768     -5.1193799    
SHAKE stats (type/ave/delta/count) on step 2620000
Bond:   1   1         1.28597e-06     9360
Angle:  1   109.47    9.98424e-05     4680
   2620000   156.61968     -2187.7915      0             -1823.4074     -5.5633314    
SHAKE stats (type/ave/delta/count) on step 2630000
Bond:   1   1         1.47835e-06     9360
Angle:  1   109.47    0.00010567      4680
   2630000   156.27736     -2186.3778      0             -1822.7902     -2.8898493    
SHAKE stats (type/ave/delta/count) on step 2640000
Bond:   1   1         1.18272e-06     9360
Angle:  1   109.47    9.38296e-05     4680
   2640000   155.63377     -2188.7725      0             -1826.6822     -8.4618204    
SHAKE stats (type/ave/delta/count) on step 2650000
Bond:   1   1         1.44749e-06     9360
Angle:  1   109.47    0.000117711     4680
   2650000   156.3147      -2190.0903      0             -1826.4158     -15.361899    
SHAKE stats (type/ave/delta/count) on step 2660000
Bond:   1   1         1.45284e-06     9360
Angle:  1   109.47    0.000104005     4680
   2660000   156.50738     -2189.8324      0             -1825.7097     -1.8535298    
SHAKE stats (type/ave/delta/count) on step 2670000
Bond:   1   1         1.46417e-06     9360
Angle:  1   109.47    9.73767e-05     4680
   2670000   157.06991     -2184.6318      0             -1819.2002     -16.714662    
SHAKE stats (type/ave/delta/count) on step 2680000
Bond:   1   1         1.11975e-06     9360
Angle:  1   109.47    9.9585e-05      4680
   2680000   156.25804     -2191.1289      0             -1827.5862      6.0727329    
SHAKE stats (type/ave/delta/count) on step 2690000
Bond:   1   1         1.58794e-06     9360
Angle:  1   109.47    0.000104551     4680
   2690000   154.1729      -2189.7646      0             -1831.0731     -7.5281187    
SHAKE stats (type/ave/delta/count) on step 2700000
Bond:   1   1         1.23049e-06     9360
Angle:  1   109.47    0.000108048     4680
   2700000   155.87968     -2189.8862      0             -1827.2238     -4.9107634    
SHAKE stats (type/ave/delta/count) on step 2710000
Bond:   1   1         1.32871e-06     9360
Angle:  1   109.47    0.000129303     4680
   2710000   157.60026     -2190.5523      0             -1823.8869     -3.3211561    
SHAKE stats (type/ave/delta/count) on step 2720000
Bond:   1   1         1.43106e-06     9360
Angle:  1   109.47    0.000111819     4680
   2720000   154.75646     -2195.771       0             -1835.7218     -12.474957    
SHAKE stats (type/ave/delta/count) on step 2730000
Bond:   1   1         1.21145e-06     9360
Angle:  1   109.47    9.31031e-05     4680
   2730000   154.81058     -2187.851       0             -1827.6759      2.4599055    
SHAKE stats (type/ave/delta/count) on step 2740000
Bond:   1   1         1.34835e-06     9360
Angle:  1   109.47    9.14557e-05     4680
   2740000   155.50257     -2191.771       0             -1829.986      -5.6039382    
SHAKE stats (type/ave/delta/count) on step 2750000
Bond:   1   1         1.30524e-06     9360
Angle:  1   109.47    9.23131e-05     4680
   2750000   158.30275     -2192.3016      0             -1824.0018     -10.380451    
SHAKE stats (type/ave/delta/count) on step 2760000
Bond:   1   1         1.321e-06       9360
Angle:  1   109.47    9.74682e-05     4680
   2760000   156.30814     -2189.3387      0             -1825.6795     -18.343101    
SHAKE stats (type/ave/delta/count) on step 2770000
Bond:   1   1         1.19587e-06     9360
Angle:  1   109.47    9.47608e-05     4680
   2770000   156.77029     -2194.8556      0             -1830.1211     -16.898197    
SHAKE stats (type/ave/delta/count) on step 2780000
Bond:   1   1         1.29997e-06     9360
Angle:  1   109.47    9.89962e-05     4680
   2780000   155.3282      -2187.4602      0             -1826.0808     -5.1504206    
SHAKE stats (type/ave/delta/count) on step 2790000
Bond:   1   1         1.50946e-06     9360
Angle:  1   109.47    9.79675e-05     4680
   2790000   155.55237     -2185.8113      0             -1823.9104     -20.248047    
SHAKE stats (type/ave/delta/count) on step 2800000
Bond:   1   1         1.34351e-06     9360
Angle:  1   109.47    0.000107337     4680
   2800000   155.89969     -2187.4806      0             -1824.7717     -7.8955513    
SHAKE stats (type/ave/delta/count) on step 2810000
Bond:   1   1         1.29125e-06     9360
Angle:  1   109.47    0.000118329     4680
   2810000   155.22933     -2188.6756      0             -1827.5263     -7.0882576    
SHAKE stats (type/ave/delta/count) on step 2820000
Bond:   1   1         1.26709e-06     9360
Angle:  1   109.47    0.000110563     4680
   2820000   157.0403      -2186.9134      0             -1821.5508     -7.1962997    
SHAKE stats (type/ave/delta/count) on step 2830000
Bond:   1   1         1.16681e-06     9360
Angle:  1   109.47    0.000103668     4680
   2830000   154.30867     -2201.7064      0             -1842.699      -12.216266    
SHAKE stats (type/ave/delta/count) on step 2840000
Bond:   1   1         1.2753e-06      9360
Angle:  1   109.47    0.000105041     4680
   2840000   154.978       -2181.6299      0             -1821.0653     -6.479222     
SHAKE stats (type/ave/delta/count) on step 2850000
Bond:   1   1         1.76803e-06     9360
Angle:  1   109.47    9.45762e-05     4680
   2850000   154.74238     -2184.3123      0             -1824.2959     -14.530897    
[...]
Bond:   1   1         1.17605e-06     9360
Angle:  1   109.47    9.67872e-05     4680
   9220000   156.72558     -2189.4033      0             -1824.7729     -1.0647695    
SHAKE stats (type/ave/delta/count) on step 9230000
Bond:   1   1         1.65625e-06     9360
Angle:  1   109.47    0.000109488     4680
   9230000   158.33928     -2195.1362      0             -1826.7514     -14.147536    
SHAKE stats (type/ave/delta/count) on step 9240000
Bond:   1   1         1.36035e-06     9360
Angle:  1   109.47    0.000101624     4680
   9240000   157.09129     -2190.1064      0             -1824.6251     -12.723454    
SHAKE stats (type/ave/delta/count) on step 9250000
Bond:   1   1         1.29467e-06     9360
Angle:  1   109.47    9.22231e-05     4680
   9250000   158.79662     -2200.6691      0             -1831.2203     -4.5478947    
SHAKE stats (type/ave/delta/count) on step 9260000
Bond:   1   1         1.24784e-06     9360
Angle:  1   109.47    0.000106771     4680
   9260000   154.29785     -2189.5562      0             -1830.574      -21.08551     
SHAKE stats (type/ave/delta/count) on step 9270000
Bond:   1   1         1.25172e-06     9360
Angle:  1   109.47    9.82033e-05     4680
   9270000   155.69072     -2190.0396      0             -1827.8168     -3.7886511    
SHAKE stats (type/ave/delta/count) on step 9280000
Bond:   1   1         1.1809e-06      9360
Angle:  1   109.47    9.86502e-05     4680
   9280000   157.06508     -2189.6581      0             -1824.2379     -14.494188    
SHAKE stats (type/ave/delta/count) on step 9290000
Bond:   1   1         1.3256e-06      9360
Angle:  1   109.47    0.000108055     4680
   9290000   155.71578     -2189.9354      0             -1827.6543     -19.271128    
SHAKE stats (type/ave/delta/count) on step 9300000
Bond:   1   1         1.23028e-06     9360
Angle:  1   109.47    0.000109344     4680
   9300000   155.13058     -2196.675       0             -1835.7554     -12.983853    
SHAKE stats (type/ave/delta/count) on step 9310000
Bond:   1   1         1.27076e-06     9360
Angle:  1   109.47    0.000106813     4680
   9310000   154.68657     -2190.9251      0             -1831.0385     -24.117013    
SHAKE stats (type/ave/delta/count) on step 9320000
Bond:   1   1         1.23866e-06     9360
Angle:  1   109.47    0.000107519     4680
   9320000   153.82018     -2192.3683      0             -1834.4974     -8.1697264    
SHAKE stats (type/ave/delta/count) on step 9330000
Bond:   1   1         1.34687e-06     9360
Angle:  1   109.47    0.000115472     4680
   9330000   155.25636     -2192.4308      0             -1831.2186     -9.9266392    
SHAKE stats (type/ave/delta/count) on step 9340000
Bond:   1   1         1.25871e-06     9360
Angle:  1   109.47    0.000105087     4680
   9340000   154.45763     -2193.2124      0             -1833.8585     -13.482431    
SHAKE stats (type/ave/delta/count) on step 9350000
Bond:   1   1         1.31998e-06     9360
Angle:  1   109.47    0.000102284     4680
   9350000   154.42995     -2200.7087      0             -1841.4192     -14.636375    
SHAKE stats (type/ave/delta/count) on step 9360000
Bond:   1   1         1.27279e-06     9360
Angle:  1   109.47    0.000109605     4680
   9360000   156.39904     -2196.198       0             -1832.3273     -9.926717     
SHAKE stats (type/ave/delta/count) on step 9370000
Bond:   1   1         1.26391e-06     9360
Angle:  1   109.47    9.71506e-05     4680
   9370000   157.56049     -2189.5584      0             -1822.9855     -1.3378426    
SHAKE stats (type/ave/delta/count) on step 9380000
Bond:   1   1         1.36895e-06     9360
Angle:  1   109.47    0.000105942     4680
   9380000   155.4284      -2182.585       0             -1820.9725     -6.9533518    
SHAKE stats (type/ave/delta/count) on step 9390000
Bond:   1   1         1.38807e-06     9360
Angle:  1   109.47    9.68316e-05     4680
   9390000   154.83137     -2186.3709      0             -1826.1475     -18.823745    
SHAKE stats (type/ave/delta/count) on step 9400000
Bond:   1   1         1.27858e-06     9360
Angle:  1   109.47    0.000100626     4680
   9400000   155.44406     -2191.5983      0             -1829.9494     -22.865578    
SHAKE stats (type/ave/delta/count) on step 9410000
Bond:   1   1         1.19611e-06     9360
Angle:  1   109.47    9.73073e-05     4680
   9410000   155.68765     -2187.2522      0             -1825.0366     -10.647128    
SHAKE stats (type/ave/delta/count) on step 9420000
Bond:   1   1         1.37411e-06     9360
Angle:  1   109.47    9.589e-05       4680
   9420000   152.77935     -2186.4229      0             -1830.9736     -14.100181    
SHAKE stats (type/ave/delta/count) on step 9430000
Bond:   1   1         1.33056e-06     9360
Angle:  1   109.47    0.000112561     4680
   9430000   153.95655     -2187.4549      0             -1829.2668     -20.773528    
SHAKE stats (type/ave/delta/count) on step 9440000
Bond:   1   1         1.20704e-06     9360
Angle:  1   109.47    8.87057e-05     4680
   9440000   154.50696     -2197.2092      0             -1837.7405     -12.548678    
SHAKE stats (type/ave/delta/count) on step 9450000
Bond:   1   1         1.34514e-06     9360
Angle:  1   109.47    9.80622e-05     4680
   9450000   156.47648     -2200.5565      0             -1836.5056     -6.84956      
SHAKE stats (type/ave/delta/count) on step 9460000
Bond:   1   1         1.2942e-06      9360
Angle:  1   109.47    0.000108339     4680
   9460000   157.09879     -2201.5944      0             -1836.0956     -10.767268    
SHAKE stats (type/ave/delta/count) on step 9470000
Bond:   1   1         1.33838e-06     9360
Angle:  1   109.47    0.000114915     4680
   9470000   157.96457     -2187.9572      0             -1820.4442     -20.482322    
SHAKE stats (type/ave/delta/count) on step 9480000
Bond:   1   1         1.26754e-06     9360
Angle:  1   109.47    9.46141e-05     4680
   9480000   155.58828     -2187.8752      0             -1825.8908     -16.156896    
SHAKE stats (type/ave/delta/count) on step 9490000
Bond:   1   1         1.27989e-06     9360
Angle:  1   109.47    9.38017e-05     4680
   9490000   154.45563     -2192.9746      0             -1833.6253     -4.2022894    
SHAKE stats (type/ave/delta/count) on step 9500000
Bond:   1   1         1.11338e-06     9360
Angle:  1   109.47    0.000103976     4680
   9500000   155.10685     -2192.7333      0             -1831.8689     -10.501157    
SHAKE stats (type/ave/delta/count) on step 9510000
Bond:   1   1         1.38436e-06     9360
Angle:  1   109.47    0.000105658     4680
   9510000   157.28595     -2187.2953      0             -1821.3611      4.1645043    
SHAKE stats (type/ave/delta/count) on step 9520000
Bond:   1   1         1.5359e-06      9360
Angle:  1   109.47    0.000112306     4680
   9520000   157.55535     -2193.5131      0             -1826.9521     -14.164583    
SHAKE stats (type/ave/delta/count) on step 9530000
Bond:   1   1         1.34019e-06     9360
Angle:  1   109.47    9.20175e-05     4680
   9530000   157.93293     -2185.4632      0             -1818.0238     -24.228676    
SHAKE stats (type/ave/delta/count) on step 9540000
Bond:   1   1         1.51212e-06     9360
Angle:  1   109.47    0.000109905     4680
   9540000   155.57206     -2191.3562      0             -1829.4095     -11.230904    
SHAKE stats (type/ave/delta/count) on step 9550000
Bond:   1   1         1.24684e-06     9360
Angle:  1   109.47    9.76244e-05     4680
   9550000   156.76781     -2199.4279      0             -1834.6992     -2.3116562    
SHAKE stats (type/ave/delta/count) on step 9560000
Bond:   1   1         1.14128e-06     9360
Angle:  1   109.47    0.000113135     4680
   9560000   154.2627      -2195.0817      0             -1836.1813     -11.546734    
SHAKE stats (type/ave/delta/count) on step 9570000
Bond:   1   1         1.23096e-06     9360
Angle:  1   109.47    9.96331e-05     4680
   9570000   155.74752     -2189.7468      0             -1827.3919     -16.296303    
SHAKE stats (type/ave/delta/count) on step 9580000
Bond:   1   1         1.19614e-06     9360
Angle:  1   109.47    9.03844e-05     4680
   9580000   155.50048     -2203.6357      0             -1841.8555     -19.510641    
SHAKE stats (type/ave/delta/count) on step 9590000
Bond:   1   1         1.5644e-06      9360
Angle:  1   109.47    9.37626e-05     4680
   9590000   157.0421      -2188.9607      0             -1823.5939     -5.34616      
SHAKE stats (type/ave/delta/count) on step 9600000
Bond:   1   1         1.3309e-06      9360
Angle:  1   109.47    9.58869e-05     4680
   9600000   155.27775     -2190.8083      0             -1829.5463     -18.666045    
SHAKE stats (type/ave/delta/count) on step 9610000
Bond:   1   1         1.18225e-06     9360
Angle:  1   109.47    9.41648e-05     4680
   9610000   155.64633     -2192.613       0             -1830.4935     -17.582314    
SHAKE stats (type/ave/delta/count) on step 9620000
Bond:   1   1         1.22938e-06     9360
Angle:  1   109.47    0.000102979     4680
   9620000   157.05161     -2187.5566      0             -1822.1676     -2.1258031    
SHAKE stats (type/ave/delta/count) on step 9630000
Bond:   1   1         1.80717e-06     9360
Angle:  1   109.47    0.000124249     4680
   9630000   155.149       -2206.257       0             -1845.2946     -19.94938     
SHAKE stats (type/ave/delta/count) on step 9640000
Bond:   1   1         1.39086e-06     9360
Angle:  1   109.47    9.23007e-05     4680
   9640000   155.118       -2188.28        0             -1827.3897     -2.7107115    
SHAKE stats (type/ave/delta/count) on step 9650000
Bond:   1   1         1.20013e-06     9360
Angle:  1   109.47    9.82941e-05     4680
   9650000   156.53038     -2190.7892      0             -1826.6129     -8.688164     
SHAKE stats (type/ave/delta/count) on step 9660000
Bond:   1   1         1.14381e-06     9360
Angle:  1   109.47    9.51244e-05     4680
   9660000   156.95185     -2188.4912      0             -1823.3343      4.1830063    
SHAKE stats (type/ave/delta/count) on step 9670000
Bond:   1   1         1.34573e-06     9360
Angle:  1   109.47    9.81315e-05     4680
   9670000   155.25558     -2187.8859      0             -1826.6755     -21.215264    
SHAKE stats (type/ave/delta/count) on step 9680000
Bond:   1   1         1.4817e-06      9360
Angle:  1   109.47    0.000102231     4680
   9680000   158.24142     -2192.7954      0             -1824.6383     -22.901285    
SHAKE stats (type/ave/delta/count) on step 9690000
Bond:   1   1         1.28361e-06     9360
Angle:  1   109.47    9.57878e-05     4680
   9690000   157.41577     -2200.3125      0             -1834.0763      3.5907587    
SHAKE stats (type/ave/delta/count) on step 9700000
Bond:   1   1         1.20985e-06     9360
Angle:  1   109.47    9.7017e-05      4680
   9700000   154.80084     -2196.1143      0             -1835.9619     -9.4815511    
SHAKE stats (type/ave/delta/count) on step 9710000
Bond:   1   1         1.48722e-06     9360
Angle:  1   109.47    0.000100016     4680
   9710000   156.39931     -2194.6448      0             -1830.7734     -3.7959273    
SHAKE stats (type/ave/delta/count) on step 9720000
Bond:   1   1         1.36877e-06     9360
Angle:  1   109.47    0.000100816     4680
   9720000   156.25786     -2196.8922      0             -1833.3499      8.8091724    
SHAKE stats (type/ave/delta/count) on step 9730000
Bond:   1   1         1.20786e-06     9360
Angle:  1   109.47    0.000102312     4680
   9730000   156.00176     -2194.8321      0             -1831.8856      0.54887179   
SHAKE stats (type/ave/delta/count) on step 9740000
Bond:   1   1         1.55034e-06     9360
Angle:  1   109.47    0.000113087     4680
   9740000   156.17561     -2191.7531      0             -1828.4022     -10.413668    
SHAKE stats (type/ave/delta/count) on step 9750000
Bond:   1   1         1.43139e-06     9360
Angle:  1   109.47    0.000100228     4680
   9750000   155.97323     -2184.7879      0             -1821.9079     -23.023524    
SHAKE stats (type/ave/delta/count) on step 9760000
Bond:   1   1         1.30147e-06     9360
Angle:  1   109.47    9.75394e-05     4680
   9760000   157.69121     -2182.4652      0             -1815.5882     -6.5826861    
SHAKE stats (type/ave/delta/count) on step 9770000
Bond:   1   1         1.22991e-06     9360
Angle:  1   109.47    0.000114739     4680
   9770000   154.55874     -2186.2908      0             -1826.7016     -6.7111095    
SHAKE stats (type/ave/delta/count) on step 9780000
Bond:   1   1         1.52897e-06     9360
Angle:  1   109.47    0.000103963     4680
   9780000   155.07048     -2193.5808      0             -1832.801      -13.39325     
SHAKE stats (type/ave/delta/count) on step 9790000
Bond:   1   1         1.2187e-06      9360
Angle:  1   109.47    9.90649e-05     4680
   9790000   155.48379     -2189.7949      0             -1828.0535     -26.789399    
SHAKE stats (type/ave/delta/count) on step 9800000
Bond:   1   1         1.26365e-06     9360
Angle:  1   109.47    9.13847e-05     4680
   9800000   155.82357     -2194.3899      0             -1831.8581     -20.055129    
SHAKE stats (type/ave/delta/count) on step 9810000
Bond:   1   1         1.3316e-06      9360
Angle:  1   109.47    9.31129e-05     4680
   9810000   156.84452     -2197.1696      0             -1832.2624     -11.749555    
SHAKE stats (type/ave/delta/count) on step 9820000
Bond:   1   1         1.28347e-06     9360
Angle:  1   109.47    0.000101476     4680
   9820000   156.24941     -2184.3372      0             -1820.8146      6.716588     
SHAKE stats (type/ave/delta/count) on step 9830000
Bond:   1   1         1.26411e-06     9360
Angle:  1   109.47    9.81374e-05     4680
   9830000   155.19257     -2202.0595      0             -1840.9957     -8.06111      
SHAKE stats (type/ave/delta/count) on step 9840000
Bond:   1   1         1.1524e-06      9360
Angle:  1   109.47    9.18048e-05     4680
   9840000   153.89362     -2192.7447      0             -1834.703       1.923958     
SHAKE stats (type/ave/delta/count) on step 9850000
Bond:   1   1         1.56603e-06     9360
Angle:  1   109.47    0.000113362     4680
   9850000   156.35617     -2184.653       0             -1820.882      -5.7735721    
SHAKE stats (type/ave/delta/count) on step 9860000
Bond:   1   1         1.55762e-06     9360
Angle:  1   109.47    0.000115663     4680
   9860000   158.69309     -2191.4633      0             -1822.2554     -0.018289408  
SHAKE stats (type/ave/delta/count) on step 9870000
Bond:   1   1         1.40777e-06     9360
Angle:  1   109.47    0.000100117     4680
   9870000   156.30466     -2192.4153      0             -1828.7642     -5.9963286    
SHAKE stats (type/ave/delta/count) on step 9880000
Bond:   1   1         1.40164e-06     9360
Angle:  1   109.47    0.000100368     4680
   9880000   155.54072     -2191.8744      0             -1830.0006     -14.979076    
SHAKE stats (type/ave/delta/count) on step 9890000
Bond:   1   1         1.13992e-06     9360
Angle:  1   109.47    9.77392e-05     4680
   9890000   159.3275      -2191.0684      0             -1820.3844     -21.466818    
SHAKE stats (type/ave/delta/count) on step 9900000
Bond:   1   1         1.20093e-06     9360
Angle:  1   109.47    0.000104568     4680
   9900000   156.17359     -2188.8631      0             -1825.5169     -16.324461    
SHAKE stats (type/ave/delta/count) on step 9910000
Bond:   1   1         1.68107e-06     9360
Angle:  1   109.47    0.00010663      4680
   9910000   156.10178     -2188.0919      0             -1824.9128     -8.3176208    
SHAKE stats (type/ave/delta/count) on step 9920000
Bond:   1   1         1.30816e-06     9360
Angle:  1   109.47    9.4483e-05      4680
   9920000   156.4265      -2186.5506      0             -1822.616       6.8877359    
SHAKE stats (type/ave/delta/count) on step 9930000
Bond:   1   1         1.34137e-06     9360
Angle:  1   109.47    9.7125e-05      4680
   9930000   155.72785     -2187.8474      0             -1825.5383     -8.7708504    
SHAKE stats (type/ave/delta/count) on step 9940000
Bond:   1   1         1.48222e-06     9360
Angle:  1   109.47    0.000115685     4680
   9940000   154.94451     -2188.087       0             -1827.6003     -4.9747814    
SHAKE stats (type/ave/delta/count) on step 9950000
Bond:   1   1         1.34236e-06     9360
Angle:  1   109.47    9.87947e-05     4680
   9950000   158.03588     -2189.6493      0             -1821.9704     -21.918853    
SHAKE stats (type/ave/delta/count) on step 9960000
Bond:   1   1         1.27313e-06     9360
Angle:  1   109.47    0.000101138     4680
   9960000   153.74815     -2195.1328      0             -1837.4295     -15.953365    
SHAKE stats (type/ave/delta/count) on step 9970000
Bond:   1   1         1.29623e-06     9360
Angle:  1   109.47    0.000102079     4680
   9970000   155.06289     -2184.279       0             -1823.5169     -15.015505    
SHAKE stats (type/ave/delta/count) on step 9980000
Bond:   1   1         1.45837e-06     9360
Angle:  1   109.47    0.000105059     4680
   9980000   155.57146     -2199.0668      0             -1837.1215     -19.57378     
SHAKE stats (type/ave/delta/count) on step 9990000
Bond:   1   1         1.17768e-06     9360
Angle:  1   109.47    9.63451e-05     4680
   9990000   156.92572     -2183.8138      0             -1818.7177     -18.489026    
SHAKE stats (type/ave/delta/count) on step 10000000
Bond:   1   1         1.32199e-06     9360
Angle:  1   109.47    9.67936e-05     4680
  10000000   154.239       -2191.437       0             -1832.5917     -2.8857239    
Loop time of 65867.5 on 640 procs for 10000000 steps with 22680 atoms

Performance: 13.117 ns/day, 1.830 hours/ns, 151.820 timesteps/s, 3.443 Matom-step/s
100.0% CPU use with 640 MPI tasks x 1 OpenMP threads

MPI task timing breakdown:
Section |  min time  |  avg time  |  max time  |%varavg| %total
---------------------------------------------------------------
Pair    | 0.94264    | 1026.5     | 18028      |8737.0 |  1.56
Bond    | 0.85627    | 1.7494     | 3.9769     |  41.4 |  0.00
Kspace  | 41247      | 57902      | 59331      |1158.8 | 87.91
Neigh   | 2450.4     | 2561.3     | 2607       |  85.4 |  3.89
Comm    | 38.453     | 630.9      | 2664.2     |2946.7 |  0.96
Output  | 0.46583    | 0.48053    | 0.49059    |   0.7 |  0.00
Modify  | 1683.5     | 3532.8     | 4266.6     |1034.2 |  5.36
Other   |            | 211.3      |            |       |  0.32

Nlocal:        35.4375 ave         603 max           0 min
Histogram: 545 54 6 2 4 5 5 1 4 14
Nghost:        358.377 ave        4170 max           0 min
Histogram: 440 113 27 16 20 4 6 4 6 4
Neighs:        6322.79 ave      166196 max           0 min
Histogram: 601 6 4 5 5 1 4 2 3 9

Total # of neighbors = 4046584
Ave neighs/atom = 178.42081
Ave special neighs/atom = 1.2380952
Neighbor list builds = 532748
Dangerous builds = 0

write_restart nvt_equi.restart.*
System init for write_restart ...
PPPM initialization ...
  using 12-bit tables for long-range coulomb (src/kspace.cpp:342)
  G vector (1/distance) = 0.30003007
  grid = 96 90 96
  stencil order = 5
  estimated absolute RMS force accuracy = 0.00016542148
  estimated relative force accuracy = 1.1487886e-05
  using double precision KISS FFT
  3d grid and FFT values/proc = 5472 1440
Generated 0 of 3 mixed pair_coeff terms from geometric mixing rule
write_data nvt_equi_final.lammps-data pair ij
System init for write_data ...
PPPM initialization ...
  using 12-bit tables for long-range coulomb (src/kspace.cpp:342)
  G vector (1/distance) = 0.30003007
  grid = 96 90 96
  stencil order = 5
  estimated absolute RMS force accuracy = 0.00016542148
  estimated relative force accuracy = 1.1487886e-05
  using double precision KISS FFT
  3d grid and FFT values/proc = 5472 1440
Generated 0 of 3 mixed pair_coeff terms from geometric mixing rule

Total wall time: 18:18:40
