(written by ASE)

11640 atoms
3 atom types

0.0      154.00799999999998  xlo xhi
0.0      148.19426709559315  ylo yhi
0.0      151.07316997686289  zlo zhi

Masses

     1      12.010999996910238 # C
     2      1.0079999997406979 # H
     3      15.998999995884349 # O

Atoms # full

     1   0   1   0.0                       0                       0                       0
     2   0   1   0.0      1.4259999999999999                       0                       0
     3   0   1   0.0      2.1389999999999998     -1.2349522257966095                       0
     4   0   1   0.0      3.5649999999999995     -1.2349522257966095                       0
     5   0   1   0.0                       0      2.4699044515932189                       0
     6   0   1   0.0      1.4259999999999999      2.4699044515932189                       0
     7   0   1   0.0      2.1389999999999998      1.2349522257966095                       0
     8   0   1   0.0      3.5649999999999995      1.2349522257966095                       0
     9   0   1   0.0                       0      4.9398089031864378                       0
    10   0   1   0.0      1.4259999999999999      4.9398089031864378                       0
    11   0   1   0.0      2.1389999999999998      3.7048566773898282                       0
    12   0   1   0.0      3.5649999999999995      3.7048566773898282                       0
    13   0   1   0.0                       0      7.4097133547796563                       0
    14   0   1   0.0      1.4259999999999999      7.4097133547796563                       0
    15   0   1   0.0      2.1389999999999998      6.1747611289830466                       0
    16   0   1   0.0      3.5649999999999995      6.1747611289830466                       0
    17   0   1   0.0                       0      9.8796178063728757                       0
    18   0   1   0.0      1.4259999999999999      9.8796178063728757                       0
    19   0   1   0.0      2.1389999999999998       8.644665580576266                       0
    20   0   1   0.0      3.5649999999999995       8.644665580576266                       0
    21   0   1   0.0                       0      12.349522257966095                       0
    22   0   1   0.0      1.4259999999999999      12.349522257966095                       0
    23   0   1   0.0      2.1389999999999998      11.114570032169485                       0
    24   0   1   0.0      3.5649999999999995      11.114570032169485                       0
    25   0   1   0.0                       0      14.819426709559313                       0
    26   0   1   0.0      1.4259999999999999      14.819426709559313                       0
    27   0   1   0.0      2.1389999999999998      13.584474483762703                       0
    28   0   1   0.0      3.5649999999999995      13.584474483762703                       0
    29   0   1   0.0                       0      17.289331161152532                       0
    30   0   1   0.0      1.4259999999999999      17.289331161152532                       0
    31   0   1   0.0      2.1389999999999998      16.054378935355924                       0
    32   0   1   0.0      3.5649999999999995      16.054378935355924                       0
    33   0   1   0.0                       0      19.759235612745751                       0
    34   0   1   0.0      1.4259999999999999      19.759235612745751                       0
    35   0   1   0.0      2.1389999999999998      18.524283386949143                       0
    36   0   1   0.0      3.5649999999999995      18.524283386949143                       0
    37   0   1   0.0                       0      22.229140064338971                       0
    38   0   1   0.0      1.4259999999999999      22.229140064338971                       0
    39   0   1   0.0      2.1389999999999998      20.994187838542363                       0
    40   0   1   0.0      3.5649999999999995      20.994187838542363                       0
    41   0   1   0.0                       0       24.69904451593219                       0
    42   0   1   0.0      1.4259999999999999       24.69904451593219                       0
    43   0   1   0.0      2.1389999999999998      23.464092290135582                       0
    44   0   1   0.0      3.5649999999999995      23.464092290135582                       0
    45   0   1   0.0                       0      27.168948967525409                       0
    46   0   1   0.0      1.4259999999999999      27.168948967525409                       0
    47   0   1   0.0      2.1389999999999998      25.933996741728802                       0
    48   0   1   0.0      3.5649999999999995      25.933996741728802                       0
    49   0   1   0.0                       0      29.638853419118625                       0
    50   0   1   0.0      1.4259999999999999      29.638853419118625                       0
    51   0   1   0.0      2.1389999999999998      28.403901193322017                       0
    52   0   1   0.0      3.5649999999999995      28.403901193322017                       0
    53   0   1   0.0                       0      32.108757870711848                       0
    54   0   1   0.0      1.4259999999999999      32.108757870711848                       0
    55   0   1   0.0      2.1389999999999998       30.87380564491524                       0
    56   0   1   0.0      3.5649999999999995       30.87380564491524                       0
    57   0   1   0.0                       0      34.578662322305064                       0
    58   0   1   0.0      1.4259999999999999      34.578662322305064                       0
    59   0   1   0.0      2.1389999999999998      33.343710096508453                       0
    60   0   1   0.0      3.5649999999999995      33.343710096508453                       0
    61   0   1   0.0                       0      37.048566773898287                       0
    62   0   1   0.0      1.4259999999999999      37.048566773898287                       0
    63   0   1   0.0      2.1389999999999998      35.813614548101675                       0
    64   0   1   0.0      3.5649999999999995      35.813614548101675                       0
    65   0   1   0.0                       0      39.518471225491503                       0
    66   0   1   0.0      1.4259999999999999      39.518471225491503                       0
    67   0   1   0.0      2.1389999999999998      38.283518999694891                       0
    68   0   1   0.0      3.5649999999999995      38.283518999694891                       0
    69   0   1   0.0                       0      41.988375677084719                       0
    70   0   1   0.0      1.4259999999999999      41.988375677084719                       0
    71   0   1   0.0      2.1389999999999998      40.753423451288107                       0
    72   0   1   0.0      3.5649999999999995      40.753423451288107                       0
    73   0   1   0.0                       0      44.458280128677941                       0
    74   0   1   0.0      1.4259999999999999      44.458280128677941                       0
    75   0   1   0.0      2.1389999999999998       43.22332790288133                       0
    76   0   1   0.0      3.5649999999999995       43.22332790288133                       0
    77   0   1   0.0                       0      46.928184580271157                       0
    78   0   1   0.0      1.4259999999999999      46.928184580271157                       0
    79   0   1   0.0      2.1389999999999998      45.693232354474546                       0
    80   0   1   0.0      3.5649999999999995      45.693232354474546                       0
    81   0   1   0.0                       0       49.39808903186438                       0
    82   0   1   0.0      1.4259999999999999       49.39808903186438                       0
    83   0   1   0.0      2.1389999999999998      48.163136806067769                       0
    84   0   1   0.0      3.5649999999999995      48.163136806067769                       0
    85   0   1   0.0                       0      51.867993483457596                       0
    86   0   1   0.0      1.4259999999999999      51.867993483457596                       0
    87   0   1   0.0      2.1389999999999998      50.633041257660985                       0
    88   0   1   0.0      3.5649999999999995      50.633041257660985                       0
    89   0   1   0.0                       0      54.337897935050819                       0
    90   0   1   0.0      1.4259999999999999      54.337897935050819                       0
    91   0   1   0.0      2.1389999999999998      53.102945709254207                       0
    92   0   1   0.0      3.5649999999999995      53.102945709254207                       0
    93   0   1   0.0                       0      56.807802386644035                       0
    94   0   1   0.0      1.4259999999999999      56.807802386644035                       0
    95   0   1   0.0      2.1389999999999998      55.572850160847423                       0
    96   0   1   0.0      3.5649999999999995      55.572850160847423                       0
    97   0   1   0.0                       0      59.277706838237251                       0
    98   0   1   0.0      1.4259999999999999      59.277706838237251                       0
    99   0   1   0.0      2.1389999999999998      58.042754612440639                       0
   100   0   1   0.0      3.5649999999999995      58.042754612440639                       0
   101   0   1   0.0                       0      61.747611289830473                       0
   102   0   1   0.0      1.4259999999999999      61.747611289830473                       0
   103   0   1   0.0      2.1389999999999998      60.512659064033862                       0
   104   0   1   0.0      3.5649999999999995      60.512659064033862                       0
   105   0   1   0.0                       0      64.217515741423696                       0
   106   0   1   0.0      1.4259999999999999      64.217515741423696                       0
   107   0   1   0.0      2.1389999999999998      62.982563515627085                       0
   108   0   1   0.0      3.5649999999999995      62.982563515627085                       0
   109   0   1   0.0                       0      66.687420193016905                       0
   110   0   1   0.0      1.4259999999999999      66.687420193016905                       0
   111   0   1   0.0      2.1389999999999998      65.452467967220301                       0
   112   0   1   0.0      3.5649999999999995      65.452467967220301                       0
   113   0   1   0.0                       0      69.157324644610128                       0
   114   0   1   0.0      1.4259999999999999      69.157324644610128                       0
   115   0   1   0.0      2.1389999999999998      67.922372418813524                       0
   116   0   1   0.0      3.5649999999999995      67.922372418813524                       0
   117   0   1   0.0                       0      71.627229096203351                       0
   118   0   1   0.0      1.4259999999999999      71.627229096203351                       0
   119   0   1   0.0      2.1389999999999998      70.392276870406747                       0
   120   0   1   0.0      3.5649999999999995      70.392276870406747                       0
   121   0   1   0.0                       0      74.097133547796574                       0
   122   0   1   0.0      1.4259999999999999      74.097133547796574                       0
   123   0   1   0.0      2.1389999999999998      72.862181321999969                       0
   124   0   1   0.0      3.5649999999999995      72.862181321999969                       0
   125   0   1   0.0                       0      76.567037999389782                       0
   126   0   1   0.0      1.4259999999999999      76.567037999389782                       0
   127   0   1   0.0      2.1389999999999998      75.332085773593178                       0
   128   0   1   0.0      3.5649999999999995      75.332085773593178                       0
   129   0   1   0.0                       0      79.036942450983005                       0
   130   0   1   0.0      1.4259999999999999      79.036942450983005                       0
   131   0   1   0.0      2.1389999999999998      77.801990225186401                       0
   132   0   1   0.0      3.5649999999999995      77.801990225186401                       0
   133   0   1   0.0                       0      81.506846902576228                       0
   134   0   1   0.0      1.4259999999999999      81.506846902576228                       0
   135   0   1   0.0      2.1389999999999998      80.271894676779624                       0
   136   0   1   0.0      3.5649999999999995      80.271894676779624                       0
   137   0   1   0.0                       0      83.976751354169437                       0
   138   0   1   0.0      1.4259999999999999      83.976751354169437                       0
   139   0   1   0.0      2.1389999999999998      82.741799128372833                       0
   140   0   1   0.0      3.5649999999999995      82.741799128372833                       0
   141   0   1   0.0                       0       86.44665580576266                       0
   142   0   1   0.0      1.4259999999999999       86.44665580576266                       0
   143   0   1   0.0      2.1389999999999998      85.211703579966056                       0
   144   0   1   0.0      3.5649999999999995      85.211703579966056                       0
   145   0   1   0.0                       0      88.916560257355883                       0
   146   0   1   0.0      1.4259999999999999      88.916560257355883                       0
   147   0   1   0.0      2.1389999999999998      87.681608031559279                       0
   148   0   1   0.0      3.5649999999999995      87.681608031559279                       0
   149   0   1   0.0                       0      91.386464708949106                       0
   150   0   1   0.0      1.4259999999999999      91.386464708949106                       0
   151   0   1   0.0      2.1389999999999998      90.151512483152501                       0
   152   0   1   0.0      3.5649999999999995      90.151512483152501                       0
   153   0   1   0.0                       0      93.856369160542314                       0
   154   0   1   0.0      1.4259999999999999      93.856369160542314                       0
   155   0   1   0.0      2.1389999999999998       92.62141693474571                       0
   156   0   1   0.0      3.5649999999999995       92.62141693474571                       0
   157   0   1   0.0                       0      96.326273612135537                       0
   158   0   1   0.0      1.4259999999999999      96.326273612135537                       0
   159   0   1   0.0      2.1389999999999998      95.091321386338933                       0
   160   0   1   0.0      3.5649999999999995      95.091321386338933                       0
   161   0   1   0.0                       0       98.79617806372876                       0
   162   0   1   0.0      1.4259999999999999       98.79617806372876                       0
   163   0   1   0.0      2.1389999999999998      97.561225837932156                       0
   164   0   1   0.0      3.5649999999999995      97.561225837932156                       0
   165   0   1   0.0                       0      101.26608251532197                       0
   166   0   1   0.0      1.4259999999999999      101.26608251532197                       0
   167   0   1   0.0      2.1389999999999998      100.03113028952536                       0
   168   0   1   0.0      3.5649999999999995      100.03113028952536                       0
   169   0   1   0.0                       0      103.73598696691519                       0
   170   0   1   0.0      1.4259999999999999      103.73598696691519                       0
   171   0   1   0.0      2.1389999999999998      102.50103474111859                       0
   172   0   1   0.0      3.5649999999999995      102.50103474111859                       0
   173   0   1   0.0                       0      106.20589141850841                       0
   174   0   1   0.0      1.4259999999999999      106.20589141850841                       0
   175   0   1   0.0      2.1389999999999998      104.97093919271181                       0
   176   0   1   0.0      3.5649999999999995      104.97093919271181                       0
   177   0   1   0.0                       0      108.67579587010164                       0
   178   0   1   0.0      1.4259999999999999      108.67579587010164                       0
   179   0   1   0.0      2.1389999999999998      107.44084364430503                       0
   180   0   1   0.0      3.5649999999999995      107.44084364430503                       0
   181   0   1   0.0                       0      111.14570032169485                       0
   182   0   1   0.0      1.4259999999999999      111.14570032169485                       0
   183   0   1   0.0      2.1389999999999998      109.91074809589824                       0
   184   0   1   0.0      3.5649999999999995      109.91074809589824                       0
   185   0   1   0.0                       0      113.61560477328807                       0
   186   0   1   0.0      1.4259999999999999      113.61560477328807                       0
   187   0   1   0.0      2.1389999999999998      112.38065254749147                       0
   188   0   1   0.0      3.5649999999999995      112.38065254749147                       0
   189   0   1   0.0                       0      116.08550922488129                       0
   190   0   1   0.0      1.4259999999999999      116.08550922488129                       0
   191   0   1   0.0      2.1389999999999998      114.85055699908469                       0
   192   0   1   0.0      3.5649999999999995      114.85055699908469                       0
   193   0   1   0.0                       0       118.5554136764745                       0
   194   0   1   0.0      1.4259999999999999       118.5554136764745                       0
   195   0   1   0.0      2.1389999999999998       117.3204614506779                       0
   196   0   1   0.0      3.5649999999999995       117.3204614506779                       0
   197   0   1   0.0                       0      121.02531812806772                       0
   198   0   1   0.0      1.4259999999999999      121.02531812806772                       0
   199   0   1   0.0      2.1389999999999998      119.79036590227112                       0
   200   0   1   0.0      3.5649999999999995      119.79036590227112                       0
   201   0   1   0.0                       0      123.49522257966095                       0
   202   0   1   0.0      1.4259999999999999      123.49522257966095                       0
   203   0   1   0.0      2.1389999999999998      122.26027035386434                       0
   204   0   1   0.0      3.5649999999999995      122.26027035386434                       0
   205   0   1   0.0                       0      125.96512703125417                       0
   206   0   1   0.0      1.4259999999999999      125.96512703125417                       0
   207   0   1   0.0      2.1389999999999998      124.73017480545757                       0
   208   0   1   0.0      3.5649999999999995      124.73017480545757                       0
   209   0   1   0.0                       0      128.43503148284739                       0
   210   0   1   0.0      1.4259999999999999      128.43503148284739                       0
   211   0   1   0.0      2.1389999999999998      127.20007925705079                       0
   212   0   1   0.0      3.5649999999999995      127.20007925705079                       0
   213   0   1   0.0                       0       130.9049359344406                       0
   214   0   1   0.0      1.4259999999999999       130.9049359344406                       0
   215   0   1   0.0      2.1389999999999998        129.669983708644                       0
   216   0   1   0.0      3.5649999999999995        129.669983708644                       0
   217   0   1   0.0                       0      133.37484038603381                       0
   218   0   1   0.0      1.4259999999999999      133.37484038603381                       0
   219   0   1   0.0      2.1389999999999998      132.13988816023721                       0
   220   0   1   0.0      3.5649999999999995      132.13988816023721                       0
   221   0   1   0.0                       0      135.84474483762705                       0
   222   0   1   0.0      1.4259999999999999      135.84474483762705                       0
   223   0   1   0.0      2.1389999999999998      134.60979261183044                       0
   224   0   1   0.0      3.5649999999999995      134.60979261183044                       0
   225   0   1   0.0                       0      138.31464928922026                       0
   226   0   1   0.0      1.4259999999999999      138.31464928922026                       0
   227   0   1   0.0      2.1389999999999998      137.07969706342365                       0
   228   0   1   0.0      3.5649999999999995      137.07969706342365                       0
   229   0   1   0.0                       0      140.78455374081346                       0
   230   0   1   0.0      1.4259999999999999      140.78455374081346                       0
   231   0   1   0.0      2.1389999999999998      139.54960151501686                       0
   232   0   1   0.0      3.5649999999999995      139.54960151501686                       0
   233   0   1   0.0                       0       143.2544581924067                       0
   234   0   1   0.0      1.4259999999999999       143.2544581924067                       0
   235   0   1   0.0      2.1389999999999998       142.0195059666101                       0
   236   0   1   0.0      3.5649999999999995       142.0195059666101                       0
   237   0   1   0.0                       0      145.72436264399991                       0
   238   0   1   0.0      1.4259999999999999      145.72436264399991                       0
   239   0   1   0.0      2.1389999999999998      144.48941041820331                       0
   240   0   1   0.0      3.5649999999999995      144.48941041820331                       0
   241   0   1   0.0      4.2779999999999996                       0                       0
   242   0   1   0.0      5.7039999999999997                       0                       0
   243   0   1   0.0      6.4169999999999998     -1.2349522257966095                       0
   244   0   1   0.0                   7.843     -1.2349522257966095                       0
   245   0   1   0.0      4.2779999999999996      2.4699044515932189                       0
   246   0   1   0.0      5.7039999999999997      2.4699044515932189                       0
   247   0   1   0.0      6.4169999999999998      1.2349522257966095                       0
   248   0   1   0.0                   7.843      1.2349522257966095                       0
   249   0   1   0.0      4.2779999999999996      4.9398089031864378                       0
   250   0   1   0.0      5.7039999999999997      4.9398089031864378                       0
   251   0   1   0.0      6.4169999999999998      3.7048566773898282                       0
   252   0   1   0.0                   7.843      3.7048566773898282                       0
   253   0   1   0.0      4.2779999999999996      7.4097133547796563                       0
   254   0   1   0.0      5.7039999999999997      7.4097133547796563                       0
   255   0   1   0.0      6.4169999999999998      6.1747611289830466                       0
   256   0   1   0.0                   7.843      6.1747611289830466                       0
   257   0   1   0.0      4.2779999999999996      9.8796178063728757                       0
   258   0   1   0.0      5.7039999999999997      9.8796178063728757                       0
   259   0   1   0.0      6.4169999999999998       8.644665580576266                       0
   260   0   1   0.0                   7.843       8.644665580576266                       0
   261   0   1   0.0      4.2779999999999996      12.349522257966095                       0
   262   0   1   0.0      5.7039999999999997      12.349522257966095                       0
   263   0   1   0.0      6.4169999999999998      11.114570032169485                       0
   264   0   1   0.0                   7.843      11.114570032169485                       0
   265   0   1   0.0      4.2779999999999996      14.819426709559313                       0
   266   0   1   0.0      5.7039999999999997      14.819426709559313                       0
   267   0   1   0.0      6.4169999999999998      13.584474483762703                       0
   268   0   1   0.0                   7.843      13.584474483762703                       0
   269   0   1   0.0      4.2779999999999996      17.289331161152532                       0
   270   0   1   0.0      5.7039999999999997      17.289331161152532                       0
   271   0   1   0.0      6.4169999999999998      16.054378935355924                       0
   272   0   1   0.0                   7.843      16.054378935355924                       0
   273   0   1   0.0      4.2779999999999996      19.759235612745751                       0
   274   0   1   0.0      5.7039999999999997      19.759235612745751                       0
   275   0   1   0.0      6.4169999999999998      18.524283386949143                       0
   276   0   1   0.0                   7.843      18.524283386949143                       0
   277   0   1   0.0      4.2779999999999996      22.229140064338971                       0
   278   0   1   0.0      5.7039999999999997      22.229140064338971                       0
   279   0   1   0.0      6.4169999999999998      20.994187838542363                       0
   280   0   1   0.0                   7.843      20.994187838542363                       0
   281   0   1   0.0      4.2779999999999996       24.69904451593219                       0
   282   0   1   0.0      5.7039999999999997       24.69904451593219                       0
   283   0   1   0.0      6.4169999999999998      23.464092290135582                       0
   284   0   1   0.0                   7.843      23.464092290135582                       0
   285   0   1   0.0      4.2779999999999996      27.168948967525409                       0
   286   0   1   0.0      5.7039999999999997      27.168948967525409                       0
   287   0   1   0.0      6.4169999999999998      25.933996741728802                       0
   288   0   1   0.0                   7.843      25.933996741728802                       0
   289   0   1   0.0      4.2779999999999996      29.638853419118625                       0
   290   0   1   0.0      5.7039999999999997      29.638853419118625                       0
   291   0   1   0.0      6.4169999999999998      28.403901193322017                       0
   292   0   1   0.0                   7.843      28.403901193322017                       0
   293   0   1   0.0      4.2779999999999996      32.108757870711848                       0
   294   0   1   0.0      5.7039999999999997      32.108757870711848                       0
   295   0   1   0.0      6.4169999999999998       30.87380564491524                       0
   296   0   1   0.0                   7.843       30.87380564491524                       0
   297   0   1   0.0      4.2779999999999996      34.578662322305064                       0
   298   0   1   0.0      5.7039999999999997      34.578662322305064                       0
   299   0   1   0.0      6.4169999999999998      33.343710096508453                       0
   300   0   1   0.0                   7.843      33.343710096508453                       0
   301   0   1   0.0      4.2779999999999996      37.048566773898287                       0
   302   0   1   0.0      5.7039999999999997      37.048566773898287                       0
   303   0   1   0.0      6.4169999999999998      35.813614548101675                       0
   304   0   1   0.0                   7.843      35.813614548101675                       0
   305   0   1   0.0      4.2779999999999996      39.518471225491503                       0
   306   0   1   0.0      5.7039999999999997      39.518471225491503                       0
   307   0   1   0.0      6.4169999999999998      38.283518999694891                       0
   308   0   1   0.0                   7.843      38.283518999694891                       0
   309   0   1   0.0      4.2779999999999996      41.988375677084719                       0
   310   0   1   0.0      5.7039999999999997      41.988375677084719                       0
   311   0   1   0.0      6.4169999999999998      40.753423451288107                       0
   312   0   1   0.0                   7.843      40.753423451288107                       0
   313   0   1   0.0      4.2779999999999996      44.458280128677941                       0
   314   0   1   0.0      5.7039999999999997      44.458280128677941                       0
   315   0   1   0.0      6.4169999999999998       43.22332790288133                       0
   316   0   1   0.0                   7.843       43.22332790288133                       0
   317   0   1   0.0      4.2779999999999996      46.928184580271157                       0
   318   0   1   0.0      5.7039999999999997      46.928184580271157                       0
   319   0   1   0.0      6.4169999999999998      45.693232354474546                       0