LAMMPS (4 Feb 2025)
OMP_NUM_THREADS environment is not set. Defaulting to 1 thread. (src/comm.cpp:99)
  using 1 OpenMP thread(s) per MPI task
# LAMMPS script for continuing NVT simulation

atom_modify map yes
newton      on

read_restart nvt_prod.restart.1120000
Reading restart file ...
  restart file = 4 Feb 2025, LAMMPS = 4 Feb 2025
  restoring atom style full from restart
  orthogonal box = (0 0 0) to (154.008 148.2 151.07609)
  16 by 8 by 11 MPI processor grid
  pair style symmetrix/mace stores no restart info
  13140 atoms
Finding 1-2 1-3 1-4 neighbors ...
  special bond factors lj:    0        0        0       
  special bond factors coul:  0        0        0       
     0 = max # of 1-2 neighbors
     0 = max # of 1-3 neighbors
     0 = max # of 1-4 neighbors
     1 = max # of special neighbors
  special bonds CPU = 5.038 seconds
  read_restart CPU = 5.232 seconds

pair_style  symmetrix/mace
pair_coeff  * * ../../../../00-common/models/ch2o-dens-inv_swa-1-6-8.json C H O
Loading MACE model from '../../../../00-common/models/ch2o-dens-inv_swa-1-6-8.json' ... success
  mapping LAMMPS type 1 (C) to MACE type 1
  mapping LAMMPS type 2 (H) to MACE type 0
  mapping LAMMPS type 3 (O) to MACE type 2

group graphene type 1
8640 atoms in group graphene
group H2O type 2 3
4500 atoms in group H2O

thermo 1000

######### NVT production for 80 ps #############

dump DUMP1 all atom 100 nvt_prod_14.lammpstrj
timestep 0.001
fix NVT1 graphene nvt temp 300 300 0.1
Resetting global fix info from restart file:
  fix style: nvt, fix ID: NVT1
fix NVT2 H2O nvt temp 300 300 0.1
Resetting global fix info from restart file:
  fix style: nvt, fix ID: NVT2
run 80000
All restart file global fix info was re-assigned
Neighbor list info ...
  update: every = 1 steps, delay = 0 steps, check = yes
  max neighbors/atom: 2000, page size: 100000
  master list distance cutoff = 8
  ghost atom cutoff = 8
  binsize = 4, bins = 39 38 38
  1 neighbor lists, perpetual/occasional/extra = 1 0 0
  (1) pair symmetrix/mace, perpetual
      attributes: full, newton on
      pair build: full/bin
      stencil: full/bin/3d
      bin: standard
Per MPI rank memory allocation (min/avg/max) = 5.928 | 6.172 | 8.116 Mbytes
   Step          Temp          E_pair         E_mol          TotEng         Press     
   1120000   300.68181     -2044713.6      0             -2044202.9      8.8270789    
   1121000   302.0852      -2044704.9      0             -2044191.8      8.3232535    
   1122000   300.80761     -2044705.5      0             -2044194.7     -21.095938    
   1123000   299.80078     -2044704.8      0             -2044195.7     -14.909928    
   1124000   295.77677     -2044705.6      0             -2044203.3     -31.852156    
   1125000   297.88632     -2044703.6      0             -2044197.7     -43.556906    
   1126000   302.47698     -2044704        0             -2044190.3     -0.95308288   
   1127000   299.89307     -2044703.4      0             -2044194        13.732007    
   1128000   300.17355     -2044709.3      0             -2044199.5      16.247035    
   1129000   298.5926      -2044707.5      0             -2044200.3      8.3114247    
   1130000   300.81226     -2044707        0             -2044196.1      44.603998    
   1131000   302.17363     -2044709.6      0             -2044196.4      30.045799    
   1132000   299.92832     -2044703.8      0             -2044194.4      33.559462    
   1133000   300.88892     -2044700.5      0             -2044189.5      2.1784824    
   1134000   298.93172     -2044706.1      0             -2044198.4      20.692937    
   1135000   300.01454     -2044700.4      0             -2044190.9      0.64607021   
   1136000   296.38616     -2044698        0             -2044194.6     -11.428082    
   1137000   302.57012     -2044701.2      0             -2044187.4      15.659115    
   1138000   297.54277     -2044704.5      0             -2044199.2      25.529065    
   1139000   298.87696     -2044703.8      0             -2044196.2      41.050626    
   1140000   299.51492     -2044708.9      0             -2044200.2      26.579475    
   1141000   301.18361     -2044707.5      0             -2044196        49.921723    
   1142000   300.92014     -2044715.6      0             -2044204.5      59.939758    
   1143000   302.07575     -2044702.8      0             -2044189.8      50.476881    
   1144000   296.45044     -2044701.3      0             -2044197.8      23.445358    
   1145000   299.09715     -2044706.2      0             -2044198.2      45.976109    
   1146000   298.75079     -2044703.6      0             -2044196.2      22.208331    
   1147000   300.66907     -2044709.5      0             -2044198.9      34.61866     
   1148000   299.02972     -2044709.6      0             -2044201.7      40.766456    
   1149000   304.80147     -2044710.9      0             -2044193.2      61.109       
   1150000   295.77472     -2044714.9      0             -2044212.6      17.929127    
   1151000   302.22703     -2044708.5      0             -2044195.2     -1.0792052    
   1152000   297.68959     -2044712.8      0             -2044207.3     -4.3518337    
   1153000   298.54037     -2044705        0             -2044198       -12.854825    
   1154000   303.10975     -2044710.8      0             -2044196       -39.423591    
   1155000   299.60458     -2044706.2      0             -2044197.3     -23.153637    
   1156000   299.50727     -2044700.7      0             -2044192        8.8544034    
   1157000   299.92368     -2044713.9      0             -2044204.5     -10.307618    
   1158000   303.89928     -2044706.4      0             -2044190.3      4.2985501    
   1159000   296.18181     -2044698.8      0             -2044195.8      16.838689    
   1160000   301.96271     -2044706.2      0             -2044193.3     -4.6677047    
   1161000   302.06149     -2044709.9      0             -2044196.9      44.708387    
   1162000   305.80169     -2044701.4      0             -2044182.1      45.829337    
   1163000   298.87737     -2044701        0             -2044193.4      43.128082    
   1164000   300.79489     -2044701.2      0             -2044190.4     -14.320598    
   1165000   302.06453     -2044711.2      0             -2044198.2      40.400673    
   1166000   303.53302     -2044707.2      0             -2044191.7      8.0023543    
   1167000   301.91908     -2044700.8      0             -2044188        5.3976305    
   1168000   299.54179     -2044710.8      0             -2044202.1      54.483523    
   1169000   303.38703     -2044705.4      0             -2044190.1      7.4190208    
   1170000   299.9219      -2044705.9      0             -2044196.5      25.607892    
   1171000   299.95489     -2044720.2      0             -2044210.8      24.783363    
   1172000   301.6052      -2044702.4      0             -2044190.1     -3.0524478    
   1173000   297.76514     -2044707.3      0             -2044201.6      22.284888    
   1174000   300.95224     -2044701.4      0             -2044190.3      33.821772    
   1175000   299.12982     -2044708.4      0             -2044200.4      92.818863    
   1176000   301.2466      -2044702.1      0             -2044190.5      46.02708     
   1177000   296.66143     -2044700.3      0             -2044196.4      38.620888    
   1178000   302.79638     -2044700.9      0             -2044186.7     -3.6194624    
   1179000   300.80013     -2044704.8      0             -2044194        9.9889882    
   1180000   302.86077     -2044706.6      0             -2044192.2      44.905096    
   1181000   297.92753     -2044717.8      0             -2044211.9      13.825691    
   1182000   299.04639     -2044696.1      0             -2044188.2      9.130323     
   1183000   298.59629     -2044710.9      0             -2044203.8      2.5711549    
   1184000   300.43551     -2044702.2      0             -2044192        4.0542994    
   1185000   299.14073     -2044704.8      0             -2044196.7      3.2928354    
   1186000   301.9641      -2044704.1      0             -2044191.3      0.071422844  
   1187000   301.46509     -2044705.1      0             -2044193.1      19.221495    
   1188000   304.78054     -2044710.4      0             -2044192.8      41.123678    
   1189000   297.24853     -2044707.8      0             -2044203        4.7152064    
   1190000   297.13398     -2044708.4      0             -2044203.7      5.3254869    
   1191000   297.66327     -2044707.3      0             -2044201.7     -7.7138277    
   1192000   301.80041     -2044705.6      0             -2044193.1     -48.467365    
   1193000   298.65553     -2044699.1      0             -2044191.9     -12.927531    
   1194000   299.2654      -2044708.3      0             -2044200        33.445289    
   1195000   300.55456     -2044700.1      0             -2044189.6     -7.2574342    
   1196000   297.80384     -2044705.5      0             -2044199.8     -40.264046    
   1197000   301.94629     -2044714.9      0             -2044202        5.962755     
   1198000   298.35101     -2044699.5      0             -2044192.8     -31.345198    
   1199000   298.9365      -2044699.9      0             -2044192.2      42.361443    
   1200000   303.03508     -2044705.7      0             -2044191        39.612914    
Loop time of 50380.2 on 1408 procs for 80000 steps with 13140 atoms

Performance: 0.137 ns/day, 174.931 hours/ns, 1.588 timesteps/s, 20.865 katom-step/s
100.0% CPU use with 1408 MPI tasks x 1 OpenMP threads

MPI task timing breakdown:
Section |  min time  |  avg time  |  max time  |%varavg| %total
---------------------------------------------------------------
Pair    | 0.13438    | 4523.9     | 49087      |14841.4 |  8.98
Bond    | 0.0031321  | 0.0072173  | 0.032218   |   7.6 |  0.00
Neigh   | 0.014335   | 0.12728    | 4.4282     | 122.0 |  0.00
Comm    | 0.50904    | 1434       | 22654      |10243.7 |  2.85
Output  | 0.67676    | 6.0527     | 11.782     | 132.1 |  0.01
Modify  | 27.702     | 44408      | 50365      |6165.0 | 88.15
Other   |            | 8.094      |            |       |  0.02

Nlocal:        9.33239 ave         253 max           0 min
Histogram: 1258 5 105 8 10 8 3 6 1 4
Nghost:        86.4595 ave        1796 max           0 min
Histogram: 1132 198 27 15 11 8 9 4 2 2
Neighs:              0 ave           0 max           0 min
Histogram: 1408 0 0 0 0 0 0 0 0 0
FullNghs:      1097.08 ave       50270 max           0 min
Histogram: 1261 112 5 8 7 4 5 2 1 3

Total # of neighbors = 1544688
Ave neighs/atom = 117.55616
Ave special neighs/atom = 0
Neighbor list builds = 3880
Dangerous builds = 0

write_restart nvt_prod.restart.*
System init for write_restart ...
write_data nvt_prod_final.lammps-data
System init for write_data ...

Total wall time: 14:00:11
