LAMMPS data file via write_data, version 4 Feb 2025, timestep = 1200000, units = metal

13140 atoms
3 atom types

0 154.00799999999998 xlo xhi
0 148.2 ylo yhi
0 151.07609208607428 zlo zhi

Masses

1 12.01099999691024
2 1.007999999740698
3 15.99899999588435

Atoms # full

7283 0 1 0 3.9672171437167836 3.0560744102158792 10.567984760904238 1 0 1
7221 0 1 0 3.94463571909214 0.5808513114581025 10.364739582971296 1 0 1
7272 0 1 0 2.5038241670946135 3.057504240167561 10.580752358413804 1 0 1
7271 0 1 0 1.8256347183908639 1.7634880813862295 10.657707886038613 1 0 1
7282 0 1 0 4.618778103967455 1.8653590372758675 10.494123495729706 1 0 1
7220 0 1 0 2.5025006641111722 0.5084594555262228 10.501959331690065 1 0 1
7273 0 1 0 1.7849267180316744 4.244168622939069 10.766793486316075 1 0 1
7284 0 1 0 4.652548529829821 4.314176387971215 10.561927835591032 1 0 1
7264 0 1 0 0.3704704122023144 4.248003280928246 10.79886316166653 1 0 1
7262 0 1 0 0.3735695997352862 1.7321036854935004 10.719444494204547 1 0 1
7241 0 1 0 8.196824290457238 0.5748571665138116 10.710688673737339 1 0 1
7291 0 1 0 6.025098717290573 1.8546629218203028 10.611690759859476 1 0 1
7292 0 1 0 6.768924816277889 3.072354020429301 10.685804685906778 1 0 1
7240 0 1 0 6.766934016358185 0.6139843177682712 10.552891112313853 1 0 1
7293 0 1 0 6.08237794740258 4.3550049887525315 10.676168195300049 1 0 1
7302 0 1 0 8.931249538867299 1.8202922419114012 10.691254329770729 1 0 1
7303 0 1 0 8.227897014685082 3.071448020684158 10.784981003084233 1 0 1
7304 0 1 0 9.030369696818074 4.335913507885486 10.720000877749564 1 0 1
7274 0 1 0 2.510678812689782 5.51800929153206 10.62417276765897 1 0 1
7285 0 1 0 3.9257777265818556 5.5351637952582875 10.576231275392688 1 0 1
7276 0 1 0 2.5253048026479603 8.02112623991749 10.808766885403115 1 0 1
7275 0 1 0 1.8021816628092049 6.72876874271857 10.797111306660584 1 0 1
7286 0 1 0 4.620770360663627 6.775555347490102 10.570754623765444 1 0 1
7287 0 1 0 3.9481817123058436 8.002802218188798 10.666105381723419 1 0 1
7266 0 1 0 0.3771028460029204 6.78496216988277 10.799129986233792 1 0 1
7288 0 1 0 4.663688339470902 9.255613133689396 10.622339769985667 1 0 1
7296 0 1 0 6.808571737248142 8.006249143223714 10.83398950816956 1 0 1
7295 0 1 0 6.106906783799424 6.703033512075639 10.732011566187635 1 0 1
7307 0 1 0 8.230807096292798 8.010709771405336 10.773218337323664 1 0 1
7305 0 1 0 8.274930265970212 5.544143375922682 10.706819645723588 1 0 1
7294 0 1 0 6.8344561143720775 5.53755273439304 10.763270961465743 1 0 1
7306 0 1 0 8.945826910952734 6.797017306572097 10.681198887558352 1 0 1
7297 0 1 0 6.088871393680196 9.275621105546234 10.713350215820988 1 0 1
7279 0 1 0 1.8033793085255858 11.716038937354579 10.58241227027723 1 0 1
7290 0 1 0 4.70415015146279 11.715282260462136 10.455830961411577 1 0 1
7289 0 1 0 3.971706264824647 10.455342197637453 10.531555588344801 1 0 1
7278 0 1 0 2.516511992666898 10.470806610053046 10.575961642810208 1 0 1
7277 0 1 0 1.7812927965076153 9.227201481851532 10.681019474756686 1 0 1
7268 0 1 0 0.361146035943094 9.294064617501853 10.789190443938528 1 0 1
7270 0 1 0 0.4045923188656854 11.792406028312113 10.59712583204737 1 0 1
7280 0 1 0 2.54842870144841 12.967393532751263 10.51103028984506 1 0 1
7281 0 1 0 3.9853653071839026 12.974286217419863 10.407187425195316 1 0 1
7299 0 1 0 6.128861793370411 11.722229130236933 10.495602037824966 1 0 1
7309 0 1 0 8.216908215807228 10.494930650869263 10.648975103178358 1 0 1
7298 0 1 0 6.8078177008261775 10.497361169687622 10.617433248949414 1 0 1
7310 0 1 0 8.896214953047936 11.706462256562824 10.668807374082308 1 0 1
7308 0 1 0 8.928490562362665 9.284754951143974 10.706860577926482 1 0 1
7301 0 1 0 8.242541989253752 13.047126636100922 10.647273053936326 1 0 1
7300 0 1 0 6.754838394221493 12.970787613291206 10.547890036852507 1 0 1
7334 0 1 0 2.4419528261537193 17.945632033362482 10.14394175830509 1 0 1
7333 0 1 0 1.8049447727907177 16.689929480639623 10.26694044224512 1 0 1
7324 0 1 0 0.366544673457534 16.737629901150857 10.351602476711305 1 0 1
7332 0 1 0 2.53699568245095 15.492389733809253 10.41059591748141 1 0 1
7345 0 1 0 3.9037659261856748 17.948151651775476 10.13746021536387 1 0 1
7344 0 1 0 4.646335008095056 16.706795046779067 10.216674824127127 1 0 1
7322 0 1 0 0.37948114140831696 14.274742604903317 10.527069581508313 1 0 1
7343 0 1 0 3.9222618983221635 15.493416985715562 10.392356200700855 1 0 1
7342 0 1 0 4.66428229159498 14.261588140245127 10.369353770806029 1 0 1
7331 0 1 0 1.7963174901519714 14.244083415242272 10.545012974315433 1 0 1
7365 0 1 0 8.244245008772912 17.925702782261197 10.200487624747653 1 0 1
7354 0 1 0 6.83195450878618 17.928051389530744 10.15324156875761 1 0 1
7352 0 1 0 6.859880386238392 15.435259399780115 10.384940244789464 1 0 1
7353 0 1 0 6.069187724455469 16.682271312182863 10.252899908027205 1 0 1
7364 0 1 0 8.929095499767834 16.69857503258263 10.335805254081583 1 0 1
7351 0 1 0 6.083931431290535 14.22483256165359 10.425130682128358 1 0 1
7362 0 1 0 8.931638875494517 14.21086277821359 10.559262456487865 1 0 1
7363 0 1 0 8.230921408425013 15.438223648315477 10.386456477336512 1 0 1
7382 0 1 0 0.4540899857750123 26.579205824792282 9.250410360381451 1 0 1
7392 0 1 0 2.5725602170847424 27.757578523859372 9.071984131493588 1 0 1
7391 0 1 0 1.8405057945177483 26.560664524208562 9.240632845413106 1 0 1
7330 0 1 0 0.4038175629603412 24.157240971680082 9.570615812960007 1 0 1
7395 0 1 0 1.9541978651900596 31.453636059747055 8.591488788203378 1 0 1
7394 0 1 0 2.603855513442614 30.23473365620347 8.752154239687103 1 0 1
7393 0 1 0 1.8937895095080297 29.040312714526735 8.871597127899257 1 0 1
7386 0 1 0 0.47837012504280546 31.41157760547983 8.585947407217501 1 0 1
7384 0 1 0 0.44275480150648083 29.021265195418177 8.91908991261767 1 0 1
7405 0 1 0 4.023347346638239 30.225751118051917 8.889332157542599 1 0 1
7404 0 1 0 4.690479985739003 28.981744428768863 9.02643046720191 1 0 1
7406 0 1 0 4.767554205855328 31.45433135132166 8.803069822482406 1 0 1
7415 0 1 0 6.161552028857682 31.449041891196146 8.972873548378539 1 0 1
7399 0 1 0 1.9059852481869137 36.355699034422365 8.239638389570247 1 0 1
7397 0 1 0 1.880247900860492 33.9027101876506 8.353986742813037 1 0 1
7396 0 1 0 2.6426032013966703 32.686836592413464 8.487475758222581 1 0 1
7407 0 1 0 4.037949702589586 32.66482686157604 8.649968065042316 1 0 1
7409 0 1 0 4.056022719117376 35.1054538937822 8.478380603703549 1 0 1
7410 0 1 0 4.778171452885957 36.41791797045915 8.535143492834193 1 0 1
7398 0 1 0 2.6189284875177057 35.11972069568552 8.298572543086092 1 0 1
7390 0 1 0 0.4878117312814474 36.41732889124806 8.198185841923435 1 0 1
7388 0 1 0 0.4814033197282684 33.90038941635533 8.339807010855964 1 0 1
7408 0 1 0 4.822169191462915 33.85965219935557 8.574454073569301 1 0 1
7417 0 1 0 6.232801614254865 33.91571698901935 8.831535065473233 1 0 1
7418 0 1 0 6.915751782492089 35.18032015767408 8.938091705427727 1 0 1
7419 0 1 0 6.160187956782286 36.409229501486735 8.793948298678622 1 0 1
7416 0 1 0 6.924997242055952 32.68854505922472 8.988060764785265 1 0 1
7428 0 1 0 9.020052050640917 33.95950835643603 9.083195089083796 1 0 1
7429 0 1 0 8.321166419067183 35.23093680250317 9.05707929865216 1 0 1
7427 0 1 0 8.358157608256425 32.69299059936456 9.137704465399072 1 0 1
7328 0 1 0 0.3586559877983999 21.70663254642844 9.92015540431333 1 0 1
7337 0 1 0 1.8209259705416458 21.621443886522343 9.872077888157193 1 0 1
7335 0 1 0 1.7908855911863761 19.20794574227332 10.107626008012268 1 0 1
7336 0 1 0 2.5335376050822753 20.406081925371122 9.963032082550438 1 0 1
7347 0 1 0 3.9407616044507647 20.404856649313096 9.978866345608914 1 0 1
7348 0 1 0 4.711644500782733 21.617957217836842 9.83498601468627 1 0 1
7349 0 1 0 4.004336690737911 22.826830148454462 9.713515643075587 1 0 1
7338 0 1 0 2.571499570873293 22.877794712990806 9.704251533200724 1 0 1
7326 0 1 0 0.3639900149154219 19.207858300240314 10.168365329623894 1 0 1
7346 0 1 0 4.678571776400026 19.13618688978534 9.98207066830428 1 0 1
7355 0 1 0 6.109828721077203 19.144378768596265 9.944843327803294 1 0 1
7358 0 1 0 6.857422071938353 22.847430813048824 9.905208446945151 1 0 1
7357 0 1 0 6.135896751800422 21.624158834064264 9.926445680548477 1 0 1
7367 0 1 0 8.232367234487931 20.350131503972708 9.975793411697504 1 0 1
7356 0 1 0 6.815492245912224 20.392561282418903 10.002467506033206 1 0 1
7366 0 1 0 8.935281598789361 19.14766791933723 10.116605158627495 1 0 1
7368 0 1 0 9.006197210052473 21.5639899769811 9.942340719736592 1 0 1
7369 0 1 0 8.27775358019887 22.828297413957266 9.956803110280724 1 0 1
7340 0 1 0 2.5668491525760975 25.331576037169093 9.413974872733023 1 0 1
7339 0 1 0 1.869848008870543 24.11645088731279 9.518667079946423 1 0 1
7341 0 1 0 4.023795934839238 25.31027312031582 9.407970843713928 1 0 1
7350 0 1 0 4.729214999386557 24.037908626462254 9.57495916333829 1 0 1
7402 0 1 0 4.739994602377857 26.503663074108477 9.241263961056346 1 0 1
7403 0 1 0 3.9849080073102163 27.739176848282572 9.027402468589885 1 0 1
12678 0 3 0 4.78444795040136 34.09282026524231 12.08565937259843 1 0 1
7411 0 1 0 6.175754209109825 26.576462316593894 9.288514582085982 1 0 1
7360 0 1 0 6.831313404135002 25.312883338434805 9.54938715192681 1 0 1
7359 0 1 0 6.13964560269219 24.085935332144565 9.75602332948398 1 0 1
7422 0 1 0 9.0309276157066 26.56139895759697 9.495674457596214 1 0 1
7361 0 1 0 8.287532107613284 25.29494118379144 9.645450282954657 1 0 1
7370 0 1 0 9.007407850687509 24.072243850683236 9.834584002131207 1 0 1
7412 0 1 0 6.915710306673761 27.81502902200567 9.266428889484091 1 0 1
7423 0 1 0 8.351063049439322 27.79626479421694 9.332326963154333 1 0 1
10358 0 2 0 0.2806494060745432 32.06727556142367 13.687444023471137 1 0 1
10857 0 2 0 3.084012511846526 27.761066150129363 12.611656959274493 1 0 1
10858 0 2 0 2.111179640358758 28.73463425291988 11.793524933360214 1 0 1
12749 0 3 0 2.170433733726617 27.90961287646906 12.345209985927164 1 0 1
8838 0 2 0 3.5290137309188085 31.723124641142512 12.76775776683869 1 0 1
9111 0 2 0 3.178057653025249 35.665041725435486 11.648620900059328 1 0 1
7413 0 1 0 6.202330142455751 28.985879104583248 9.112621587183805 1 0 1
7414 0 1 0 6.867162142737644 30.24600852014292 9.15876643924891 1 0 1
7426 0 1 0 9.066174496373275 31.474998742495917 9.28777247106954 1 0 1
7425 0 1 0 8.344981468980448 30.236093979180236 9.347775237408419 1 0 1
7424 0 1 0 9.040541442085026 29.033541230750508 9.45428107097853 1 0 1
11876 0 3 0 2.4288284045447375 36.24611186109652 11.410995860408887 1 0 1
11572 0 2 0 0.726222217674497 35.10657269453508 11.752370159064467 1 0 1
9112 0 2 0 2.2860916710456345 36.74068895185816 12.265719763907613 1 0 1
11739 0 3 0 3.5082013976663036 31.734992181447378 11.77024348789252 1 0 1
8837 0 2 0 2.6416572422619966 31.944320904158747 11.39405584121106 1 0 1
10114 0 2 0 0.3279614005859227 27.47713403071788 12.78916663367391 1 0 1
10715 0 2 0 5.610837452841856 33.9149544146511 11.5338279123709 1 0 1
7430 0 1 0 9.039112007925823 36.42056169394458 9.11539858477673 1 0 1
10716 0 2 0 4.224404685072539 33.28018754362277 12.046717088522126 1 0 1
10357 0 2 0 0.27081502112214106 33.108879821900395 12.577780257431879 1 0 1
12499 0 3 0 0.6052697693260676 32.21966548699339 12.825422394865399 1 0 1
11571 0 2 0 0.21827856304314602 35.24487457981353 13.130062332741621 1 0 1
11563 0 2 0 1.5667994235663365 31.384884242927917 17.523022004023847 1 0 1
12617 0 3 0 0.21993317523952588 32.65801850718308 15.670319668215491 1 0 1
10016 0 2 0 0.9700053134172724 35.94234143906641 15.804554674958755 1 0 1
10594 0 2 0 0.415426519347784 33.608717287613004 15.901978982124865 1 0 1
11482 0 2 0 2.6685665116336015 33.48601326535578 17.79225648311815 1 0 1
10060 0 2 0 2.434467337070793 32.63558952441301 14.570451690824804 1 0 1
10059 0 2 0 3.5249403960127914 32.087842134076624 15.481107884577794 1 0 1
12350 0 3 0 3.4174396881983586 32.4361380978295 14.588403030370415 1 0 1
13102 0 3 0 2.493240656307165 31.405187174914865 17.357708675553464 1 0 1
10309 0 2 0 4.3058588321332625 35.5892805941265 13.870997898740555 1 0 1
11276 0 2 0 3.1977060235471217 36.524235534630634 15.55544563318788 1 0 1
12958 0 3 0 2.4871064737544994 36.800468630232736 16.26156391045658 1 0 1
11481 0 2 0 1.6649779197863943 34.55041166842303 18.03642251937411 1 0 1
11275 0 2 0 2.7310232703521398 36.24976375483839 17.063650084877352 1 0 1
13061 0 3 0 2.6193594953646087 34.42275190814209 17.88093686709916 1 0 1
11564 0 2 0 2.859700309129617 30.671003652276063 17.88768461289146 1 0 1
12328 0 3 0 0.32124570979373024 35.56252051700179 15.095108617971354 1 0 1
12475 0 3 0 3.9433834698816397 36.40319420167684 14.282790171583436 1 0 1
7451 0 1 0 1.8805982652823174 38.8130707430449 8.324562113772386 1 0 1
7452 0 1 0 2.578271084429962 40.045967488355956 8.397134419852717 1 0 1
7401 0 1 0 4.028296944922189 37.609255205417625 8.478761032980495 1 0 1
7400 0 1 0 2.6128760385460374 37.586295775250214 8.371398766563573 1 0 1
7463 0 1 0 3.9901974880066207 40.05456428898558 8.507261867096839 1 0 1
7462 0 1 0 4.716508952088934 38.828315206570124 8.6419939896986 1 0 1
7453 0 1 0 1.8711037197448348 41.3460160327548 8.263034853548962 1 0 1
7464 0 1 0 4.703663170465266 41.30508268995806 8.51942165042691 1 0 1
7442 0 1 0 0.4548885579605493 38.864992155933045 8.113294265202237 1 0 1
7444 0 1 0 0.42159151500374775 41.38976143388777 8.276847335228025 1 0 1
7471 0 1 0 6.137729266440187 38.86231263530056 8.85365686315077 1 0 1
7472 0 1 0 6.846586912998291 40.075106897444385 8.75499377343695 1 0 1
7420 0 1 0 6.836968926357175 37.61983438259663 8.952414293711827 1 0 1
7473 0 1 0 6.137645246847337 41.29256397615767 8.536822019030325 1 0 1
7454 0 1 0 2.5833910662004373 42.54495230745717 8.370147488658853 1 0 1
7455 0 1 0 1.8641486269892806 43.74078279965608 8.453709545298153 1 0 1
7465 0 1 0 4.020877687110152 42.564720896910146 8.544787633009738 1 0 1
7456 0 1 0 2.5506403173415 45.00884490202515 8.664900529873018 1 0 1
7466 0 1 0 4.724282630975667 43.79415508677179 8.712020428640212 1 0 1
7467 0 1 0 3.931486909971025 45.00739536003324 8.817480542157986 1 0 1
7446 0 1 0 0.41686802772922427 43.77564748561215 8.432054938527212 1 0 1
7457 0 1 0 1.8143554673905937 46.227447770804126 8.9133525787866 1 0 1
7468 0 1 0 4.603147719984277 46.21693991145403 9.091963032117679 1 0 1
7448 0 1 0 0.4193447988846361 46.246294369766446 8.889777385529817 1 0 1
7475 0 1 0 6.137291137939853 43.75999344700379 8.782141564800998 1 0 1
7474 0 1 0 6.891131004805919 42.51629269127002 8.619639287764842 1 0 1
7459 0 1 0 1.8016621754612347 48.71096014499424 9.164903627632745 1 0 1
7458 0 1 0 2.5246910761081867 47.481067629277256 9.07566951697607 1 0 1
7461 0 1 0 3.9335642651893368 49.94744600072964 9.33406794117904 1 0 1
7460 0 1 0 2.5149654602372444 49.99715223743592 9.26262419248442 1 0 1
7469 0 1 0 3.936595630057241 47.487843801620436 9.230552287340213 1 0 1
7470 0 1 0 4.6664916891404244 48.70590068479569 9.266016647383134 1 0 1
7450 0 1 0 0.4323987571547547 48.69671336029346 9.06200314564425 1 0 1
7479 0 1 0 6.101001297199701 48.69523535173599 9.24117081850154 1 0 1
7502 0 1 0 0.368898275457374 51.170224287959705 9.169694926964992 1 0 1
7513 0 1 0 1.7838112320073347 53.6432193509375 9.418439287749798 1 0 1
7511 0 1 0 1.7943107726278962 51.20087807792136 9.314658501572273 1 0 1
7512 0 1 0 2.4880344200555853 52.4202833956079 9.459506052255286 1 0 1
7514 0 1 0 2.525708791678824 54.84769668153016 9.56383918365404 1 0 1
7525 0 1 0 3.947413944039158 54.88329038919646 9.694294365382175 1 0 1
7523 0 1 0 3.9265990608516543 52.38763019093423 9.60279519574338 1 0 1
7522 0 1 0 4.6281443320846645 51.186645952886934 9.450355680544938 1 0 1
7524 0 1 0 4.6419006951720805 53.620763472177885 9.720766467101253 1 0 1
7504 0 1 0 0.33845762687594694 53.65303397062948 9.373854768035244 1 0 1
12341 0 3 0 0.6541418547003116 40.739694930393505 11.191302470912326 1 0 1
12318 0 3 0 2.182034209276626 39.35604986883233 12.824028699203978 1 0 1
11178 0 2 0 1.8226683651940472 50.060031387438315 13.606772774250539 1 0 1
9995 0 2 0 2.3548765488610273 40.24312547143363 13.294956506542462 1 0 1
12909 0 3 0 1.5853223872514806 49.829702990196054 12.667262099256822 1 0 1
7483 0 1 0 8.265417691935369 40.08846543460492 8.911375028569784 1 0 1
7484 0 1 0 8.999795555836341 41.337869857497175 8.799463420152854 1 0 1
7482 0 1 0 8.94221491784246 38.874928924916695 9.069876979969349 1 0 1
7421 0 1 0 8.274392022427621 37.60795132604264 9.137976451244132 1 0 1
8856 0 2 0 4.668776236134638 37.9574373472475 11.499239631336682 1 0 1
11748 0 3 0 4.607913432890769 38.41241585657708 12.347825022873764 1 0 1
8855 0 2 0 3.6937445050545348 38.807393977218936 12.30638237632387 1 0 1
9618 0 2 0 6.437763528328087 45.021339351695154 12.08468421842416 1 0 1
7543 0 1 0 8.139883627390073 52.41736741223696 9.891378254953047 1 0 1
11733 0 3 0 0.8324419962402032 43.51806815018768 12.095192951170176 1 0 1
8825 0 2 0 1.6964087086522381 43.95560956068744 12.019915274064 1 0 1
10454 0 2 0 2.974759178684162 45.67201123683649 11.35263965923293 1 0 1
8826 0 2 0 0.7235675147010845 43.47916035133953 13.054781651983214 1 0 1
12547 0 3 0 3.364637104156916 44.907075255330646 11.836194259220992 1 0 1
10453 0 2 0 3.419109646513318 45.20028337317185 12.816401075217685 1 0 1
11837 0 3 0 5.434201786852211 41.49585584714785 12.640224630491092 1 0 1
7476 0 1 0 6.797600619207846 44.98622685172608 8.988292374574797 1 0 1
7487 0 1 0 8.253959931951837 45.07317048683707 8.964663953313678 1 0 1
7485 0 1 0 8.294119013196768 42.58429937000251 8.708308210746955 1 0 1
7486 0 1 0 8.948681927439933 43.85660923855326 8.862448651433553 1 0 1
12129 0 3 0 6.116349930993533 44.12686758520331 11.805858410708657 1 0 1
9617 0 2 0 5.075997740282077 44.29380923215229 11.885414694511114 1 0 1
9567 0 2 0 5.27079264554759 49.40261460449599 12.268784622128507 1 0 1
7544 0 1 0 8.870478402009127 53.71144585778189 9.95126589298735 1 0 1
11371 0 2 0 3.964313822230694 48.087131857087414 13.357318171299791 1 0 1
10466 0 2 0 0.8182983045692217 45.751975106769834 11.652627118548432 1 0 1
13006 0 3 0 3.8382078705592044 48.54189534472717 12.475692181916372 1 0 1
11372 0 2 0 3.0149453000727617 49.01004462281139 12.641583669455834 1 0 1
9568 0 2 0 6.558351746781106 50.34524239942445 11.971629197026878 1 0 1
12104 0 3 0 6.124664533703145 49.76367104915954 12.635235550761188 1 0 1
9522 0 2 0 1.0036231227634338 54.76059037433608 11.589859135979005 1 0 1
11177 0 2 0 1.8443175504171339 50.66786130772099 12.210436097603353 1 0 1
7477 0 1 0 6.00685111431838 46.22358986410664 9.11882890749448 1 0 1
7478 0 1 0 6.771086907356656 47.4683555076321 9.16119463696918 1 0 1
7489 0 1 0 8.167726580242388 47.51062936090356 9.16230170718566 1 0 1
7481 0 1 0 8.16713423751877 50.00390508207901 9.370292225716387 1 0 1
7480 0 1 0 6.772268105164085 49.96912878989038 9.452664525097692 1 0 1
7488 0 1 0 8.97325820053982 46.323728619794245 9.07618666565622 1 0 1
7490 0 1 0 8.855472003142118 48.74639572857327 9.321954827785277 1 0 1
9034 0 2 0 5.618432544508428 40.999383643972344 11.826091693779729 1 0 1
9033 0 2 0 5.888674395298978 42.32513281129742 12.413237850796651 1 0 1
12081 0 3 0 0.9534550138767286 55.08919455841952 12.546367727185451 1 0 1
10121 0 2 0 5.036910821078831 53.4766081351235 12.139523788925496 1 0 1
9038 0 2 0 1.6372066098750555 53.51276920921158 12.804433123061894 1 0 1
11839 0 3 0 2.417709002640082 52.90145279408206 12.710245342454392 1 0 1
9037 0 2 0 3.057165572831404 53.176885186857504 13.363830117983907 1 0 1
9737 0 2 0 7.44499268379115 47.59266704779625 12.99430820506029 1 0 1
12381 0 3 0 5.318490592071878 54.22910644347594 12.735390756839696 1 0 1
7533 0 1 0 6.0381607120548155 53.70962258179158 9.842476202279254 1 0 1
7531 0 1 0 6.036354493398658 51.23368787652559 9.549782036931532 1 0 1
7532 0 1 0 6.7539637129280745 52.44815172157794 9.76784119559636 1 0 1
7545 0 1 0 8.20316289607396 54.95972572819161 9.974881273325186 1 0 1
7542 0 1 0 8.901635558930517 51.201090904184966 9.720923203958433 1 0 1
7534 0 1 0 6.772163192615995 54.99368093224874 9.896032231409757 1 0 1
9996 0 2 0 1.6168544565725291 39.641623455943964 12.08392360460303 1 0 1
12553 0 3 0 0.3104815250019873 46.464508080218664 12.117071562893319 1 0 1
10122 0 2 0 4.449632535819964 54.71179636446436 12.625309936686834 1 0 1
12189 0 3 0 7.716752275486062 46.69187991194791 12.681610758156491 1 0 1
10042 0 2 0 0.8034482682191866 41.617107253132914 11.573124182505634 1 0 1
11268 0 2 0 0.7724494129858305 38.55083144570338 13.575337762417073 1 0 1
9738 0 2 0 7.8850702373677155 46.13515088160939 13.490348008123952 1 0 1
9058 0 2 0 2.5135923786151935 41.806479786385005 14.774190618053796 1 0 1
11986 0 3 0 5.685003220381775 43.79183859433309 16.006668531849755 1 0 1
9332 0 2 0 5.164941818660314 44.185078231179986 15.288644898683154 1 0 1
11923 0 3 0 4.364521974095498 44.98728600913166 17.973718814960417 1 0 1
10026 0 2 0 1.6946186396862561 42.565861991468566 16.82306736713391 1 0 1
12333 0 3 0 2.3163646222760774 41.845886489597554 16.555283398563226 1 0 1
10025 0 2 0 1.9066183720483356 40.976154810527625 16.925663716018477 1 0 1
10717 0 2 0 0.14991226629949908 39.48069649001307 16.70880173324777 1 0 1
12679 0 3 0 1.0074375537210325 39.40331802773993 17.19475949397118 1 0 1
9136 0 2 0 1.3065261314744354 55.33279988053169 15.803490474901196 1 0 1
9331 0 2 0 5.7377899292806624 42.852809768540546 15.705246357869186 1 0 1
12788 0 3 0 5.058268530793142 41.057326792575644 15.241463136431726 1 0 1
10935 0 2 0 5.270733237159738 40.61172238790947 14.362301659200165 1 0 1
10936 0 2 0 4.610077349593986 40.348883568452116 15.793373223567603 1 0 1
11600 0 2 0 1.2189700183202405 47.12289863841952 16.544238098510224 1 0 1
11100 0 2 0 4.966540009663876 52.66570434870048 14.23019731702189 1 0 1
9206 0 2 0 3.7093569343794925 45.066416037139916 17.292961015160664 1 0 1
13002 0 3 0 5.066886131994464 47.39806277408789 18.958995155948354 1 0 1
9960 0 2 0 2.469869098297442 44.79821091180586 19.4668434529759 1 0 1
10764 0 2 0 2.9271919016427175 44.644459781438016 14.8152318297993 1 0 1
12702 0 3 0 3.6616825513030347 45.099809790639604 14.424553937315046 1 0 1
10763 0 2 0 3.899796571521717 45.9931232666266 14.847203130008147 1 0 1
12517 0 3 0 0.5469063744999264 44.39046299313068 15.182910742026245 1 0 1
11099 0 2 0 5.04937266745434 51.20197228954079 13.893151769940577 1 0 1
9959 0 2 0 1.058099946586164 44.86424198153748 20.015208273624665 1 0 1
12300 0 3 0 1.6868309116628006 45.35174378793384 19.45353660392549 1 0 1
11599 0 2 0 1.6743525731832947 46.5495411616814 17.935404713641585 1 0 1
10980 0 2 0 7.9758243040306045 44.44715275623349 15.218077435421774 1 0 1
12810 0 3 0 8.749052724579133 44.94471441212539 14.84345431891385 1 0 1
10979 0 2 0 9.6095789786821 44.53375679289811 15.130840147570462 1 0 1
10305 0 2 0 8.149908660396754 46.374126504988226 16.11507685297623 1 0 1
13033 0 3 0 0.199973078165095 43.7197650159251 17.64983252051967 1 0 1
10718 0 2 0 1.59589041283107 38.71915529695257 16.863604346160603 1 0 1
13120 0 3 0 1.9629412032454645 46.6568370877843 17.00395909733251 1 0 1
9513 0 2 0 5.685808366395333 47.20052888684353 15.582761464289593 1 0 1
10757 0 2 0 3.825483247581028 48.86483512542093 18.28582475507554 1 0 1
12699 0 3 0 3.3842660633514137 49.076308745517494 17.447361447751412 1 0 1
9514 0 2 0 4.598458015672301 48.01087349694876 16.268862231511186 1 0 1
10758 0 2 0 2.9957312451037508 48.20314327101381 17.245655018584127 1 0 1
11463 0 2 0 2.702184735618699 51.27968553187753 14.96033801878974 1 0 1
11464 0 2 0 2.5766468647942964 50.32666114257834 16.060558472053007 1 0 1
12077 0 3 0 4.756287043799245 47.41197248281722 15.466486363852145 1 0 1
12473 0 3 0 7.477429689252037 46.926664801130435 16.579356609538067 1 0 1
10306 0 2 0 7.5082712502363425 46.699893504607424 17.54569789058743 1 0 1
12870 0 3 0 4.706153933132698 51.78353342065257 14.572467827533753 1 0 1
9057 0 2 0 3.76166669044486 41.888120808543 13.810498321211973 1 0 1
12809 0 3 0 0.1446854660078261 53.84116917025087 16.622863870256225 1 0 1
13052 0 3 0 2.0285889056643787 50.715489248060216 15.377613086422706 1 0 1
11363 0 2 0 4.891511478934757 47.09725552135634 19.870331081975365 1 0 1
9027 0 2 0 0.13439881976965637 50.972870768694335 15.647302708855243 1 0 1
11364 0 2 0 4.647620804067475 46.647038480616025 18.451209662464688 1 0 1
9205 0 2 0 5.078641699714599 44.612485514108315 17.455142179350865 1 0 1
11426 0 2 0 0.5380660429995631 44.42526456168353 18.279128179230185 1 0 1
11849 0 3 0 2.785000742843302 41.858639617821744 13.81009911582605 1 0 1
10977 0 2 0 0.22499741001408202 53.194367714677995 15.944712108663445 1 0 1
10393 0 2 0 0.26202710182509603 45.22621054480139 14.82478479196977 1 0 1
10394 0 2 0 0.419645912075697 44.518631452792896 16.160211567911546 1 0 1
9107 0 2 0 0.004122421852997604 46.86708173927317 13.792404015362324 1 0 1
10310 0 2 0 4.357842913624098 37.11784424887436 13.747645080052902 1 0 1
7516 0 1 0 2.495349576407137 57.358384120038615 9.758625784109539 1 0 1
7515 0 1 0 1.8373547653036024 56.13264229227026 9.619606062817617 1 0 1
7517 0 1 0 1.8129168629831451 58.625936547014135 9.728457395689032 1 0 1
7528 0 1 0 4.628136394279327 58.616853294947035 9.82684374513986 1 0 1
7527 0 1 0 3.9250435469812808 57.36981360027733 9.778704488820832 1 0 1
7529 0 1 0 3.9338359350809795 59.886566729939304 9.9039524860885 1 0 1
7518 0 1 0 2.5900458606255246 59.88287691357288 9.861756982840179 1 0 1
7506 0 1 0 0.417984741608731 56.184422188054285 9.495746128073081 1 0 1
7508 0 1 0 0.37943128885176625 58.682124307404294 9.612193114985981 1 0 1
7562 0 1 0 0.42600131706698263 63.590979366912144 9.683532525652387 1 0 1
7510 0 1 0 0.360236245583119 61.17423316496556 9.734135225784195 1 0 1
7519 0 1 0 1.8437879033914557 61.13619259748113 9.868473873562682 1 0 1
7571 0 1 0 1.833902841222735 63.6057490380684 9.740774168519104 1 0 1
7520 0 1 0 2.531481875665949 62.373338329502296 10.023942258344547 1 0 1
7582 0 1 0 4.628546652986811 63.65540415175796 10.147230280504173 1 0 1
7521 0 1 0 3.94513633652378 62.36943381395442 10.026169704389865 1 0 1
7530 0 1 0 4.689228332405195 61.13868874423642 10.029947106684132 1 0 1
7583 0 1 0 3.9078530915241747 64.84969331852176 10.004309957078048 1 0 1
7572 0 1 0 2.499147684574443 64.854805087728 9.695547074244091 1 0 1
7591 0 1 0 6.04923228617149 63.63622194845186 10.192566136976584 1 0 1
7539 0 1 0 6.082577294232583 61.151378153222765 10.029602146077412 1 0 1
7540 0 1 0 6.756269076241549 62.3923609972317 10.23656788242315 1 0 1
7592 0 1 0 6.778826664751217 64.87877738706122 10.119811264613197 1 0 1
7573 0 1 0 1.802335265739544 66.03275207406752 9.429703742058432 1 0 1
7585 0 1 0 3.932464725335348 67.31715869044427 9.742152790349824 1 0 1
7574 0 1 0 2.518865544615219 67.28498703059894 9.538100757015753 1 0 1
7575 0 1 0 1.832082358043942 68.55420416812672 9.502304611727917 1 0 1
7584 0 1 0 4.583699232628179 66.08793845949158 9.897444535471863 1 0 1
7586 0 1 0 4.62356432469611 68.5851616090138 9.96375909750306 1 0 1
7564 0 1 0 0.3741964549698115 66.07031485543699 9.363742410082562 1 0 1
7566 0 1 0 0.4226453633583775 68.51622598534367 9.361111569421775 1 0 1
7593 0 1 0 6.074514922431971 66.0810142037977 10.036504998122954 1 0 1
7595 0 1 0 6.048474204744281 68.52757224803295 10.00698128804678 1 0 1
7594 0 1 0 6.7602963812713455 67.29018959808866 10.158598882635285 1 0 1
7605 0 1 0 8.18524610379059 67.32214381522368 10.300317065415717 1 0 1
7606 0 1 0 8.853797412784989 68.57790413430975 10.132198158454777 1 0 1
7604 0 1 0 8.887042619824687 66.071919166889 10.350719225802765 1 0 1
7568 0 1 0 0.3815797792271354 70.96376652209818 9.24438376697047 1 0 1
7577 0 1 0 1.832139252074766 70.96707207058591 9.48948383884763 1 0 1
7579 0 1 0 1.8202053628072508 73.46771421405091 9.593919082022781 1 0 1
7576 0 1 0 2.4965995767028337 69.77501956494369 9.57966544795801 1 0 1
7578 0 1 0 2.5311506248681575 72.21233192308625 9.728332089251122 1 0 1
7589 0 1 0 3.9365313402759607 72.22115523905629 9.900841898705089 1 0 1
7570 0 1 0 0.3758637114489955 73.45542501327022 9.47149745055027 1 0 1
7588 0 1 0 4.627637671426147 71.02105235726856 9.925431533029268 1 0 1
7590 0 1 0 4.632128903613408 73.48006951854993 9.826634839858423 1 0 1
7596 0 1 0 6.783108277005449 69.78609958318391 10.048291187423622 1 0 1
7609 0 1 0 8.230952671548922 72.21945630933924 9.888481157135576 1 0 1
7608 0 1 0 8.945910184527591 70.97384972199524 10.032350765668285 1 0 1
7610 0 1 0 8.941217615253928 73.47059140828665 9.787589106601228 1 0 1
7599 0 1 0 6.058393585730332 73.49778870388565 9.904965165786395 1 0 1
7607 0 1 0 8.194481109255957 69.79010256704758 10.003951649784797 1 0 1
7526 0 1 0 4.689548500601807 56.12861079505885 9.793958415815505 1 0 1
9237 0 2 0 0.6857662248862305 59.8652695105157 12.154274819034136 1 0 1
11939 0 3 0 0.8163068744486829 59.20088733708158 12.857627047698356 1 0 1
12791 0 3 0 4.74763946391858 62.581581532689334 12.972046626225785 1 0 1
10001 0 2 0 4.29399100285583 58.838211252600935 12.557919578146088 1 0 1
12321 0 3 0 4.547805550119666 59.362469207822954 13.305278745137121 1 0 1
11306 0 2 0 2.1441416775658957 56.31180416422868 13.245179144479414 1 0 1
7538 0 1 0 6.76447529106709 59.88687811124697 9.996350353828511 1 0 1
7535 0 1 0 6.075419686222166 56.18866099981442 9.884177068743618 1 0 1
7537 0 1 0 6.054994467024013 58.653296642731334 9.91798634269466 1 0 1
7536 0 1 0 6.74466380132008 57.460488492817696 9.888260145240285 1 0 1
7546 0 1 0 8.906547854416894 56.216541868043294 9.92609659692032 1 0 1
7547 0 1 0 8.169048861765722 57.42389162649458 9.895380090558367 1 0 1
7548 0 1 0 8.905497005697944 58.70254380953432 9.959280207017322 1 0 1
7549 0 1 0 8.16546020821478 59.92289417104596 10.00074603831672 1 0 1
9238 0 2 0 1.5991198137306561 58.673840605583194 12.751805657081675 1 0 1
7598 0 1 0 6.787699263262474 72.27954743194806 9.966255477642052 1 0 1
12973 0 3 0 2.619210368747934 57.13061293124303 13.374680732519602 1 0 1
7587 0 1 0 3.898801793646814 69.8053127643805 9.761959782676946 1 0 1