 DBCSR| CPU Multiplication driver                                           BLAS
 DBCSR| Multrec recursion limit                                              512
 DBCSR| Multiplication stack size                                           1000
 DBCSR| Maximum elements for images                                    UNLIMITED
 DBCSR| Multiplicative factor virtual images                                   1
 DBCSR| Use multiplication densification                                       T
 DBCSR| Multiplication size stacks                                             3
 DBCSR| Use memory pool for CPU allocation                                     F
 DBCSR| Number of 3D layers                                               SINGLE
 DBCSR| Use MPI memory allocation                                              F
 DBCSR| Use RMA algorithm                                                      F
 DBCSR| Use Communication thread                                               T
 DBCSR| Communication thread load                                             87
 DBCSR| MPI: My node id                                                        0
 DBCSR| MPI: Number of nodes                                                 128
 DBCSR| OMP: Current number of threads                                         1
 DBCSR| OMP: Max number of threads                                             1
 DBCSR| Split modifier for TAS multiplication algorithm                  1.0E+00


  **** **** ******  **  PROGRAM STARTED AT               2025-10-22 11:51:20.475
 ***** ** ***  *** **   PROGRAM STARTED ON                             nid003154
 **    ****   ******    PROGRAM STARTED BY                            xr223_ukcp
 ***** **    ** ** **   PROGRAM PROCESS ID                                113299
  **** **  *******  **  PROGRAM STARTED IN /mnt/lustre/a2fs-work3/work/e89/e89/x
                                           r223_ukcp/BINDING-ENERGY-DARREN/bindi
                                           ng-energy/2-leg/s+2.00/d+2.75

 CP2K| version string:                                          CP2K version 9.1
 CP2K| source code revision number:                                  git:d8d7100
 CP2K| cp2kflags: omp libint fftw3 libxc elpa parallel mpi3 scalapack plumed2 mk
 CP2K|            l
 CP2K| is freely available from                            https://www.cp2k.org/
 CP2K| Program compiled at                       Thu 08 Jun 2023 08:54:13 AM BST
 CP2K| Program compiled on                                                  ln03
 CP2K| Program compiled for                                              ARCHER2
 CP2K| Data directory path       /work/y07/shared/apps/core/cp2k/cp2k-9.1.0/data
 CP2K| Input file name                                              cp2k_sub.inp

 GLOBAL| Force Environment number                                              1
 GLOBAL| Basis set file name                                      GTH_BASIS_SETS
 GLOBAL| Potential file name                                           POTENTIAL
 GLOBAL| MM Potential file name                                     MM_POTENTIAL
 GLOBAL| Coordinate file name                                           init.pdb
 GLOBAL| Method name                                                        CP2K
 GLOBAL| Project name                                                    MAT-H2O
 GLOBAL| Run type                                                         ENERGY
 GLOBAL| FFT library                                                       FFTW3
 GLOBAL| Diagonalization library                                            ELPA
 GLOBAL| Minimum number of eigenvectors for ELPA usage                        16
 GLOBAL| Orthonormality check for eigenvectors                          DISABLED
 GLOBAL| Matrix multiplication library                                 ScaLAPACK
 GLOBAL| All-to-all communication in single precision                          F
 GLOBAL| FFTs using library dependent lengths                                  F
 GLOBAL| Grid backend                                                       AUTO
 GLOBAL| Global print level                                                  LOW
 GLOBAL| MPI I/O enabled                                                       T
 GLOBAL| Total number of message passing processes                           128
 GLOBAL| Number of threads for this process                                    1
 GLOBAL| This output is from process                                           0
 GLOBAL| Stack size for threads created by OpenMP (OMP_STACKSIZE)        default
 GLOBAL| CPU model name                          AMD EPYC 7742 64-Core Processor
 GLOBAL| CPUID                                                              1002

 MEMORY| system memory details [Kb]
 MEMORY|                        rank 0           min           max       average
 MEMORY| MemTotal            263266868     263266868     263266868     263266868
 MEMORY| MemFree             239808604     239808352     239808604     239808556
 MEMORY| Buffers                179268        179268        179268        179268
 MEMORY| Cached                1506380       1506376       1506380       1506379
 MEMORY| Slab                  4445712       4445712       4445712       4445712
 MEMORY| SReclaimable          1753032       1753032       1753032       1753032
 MEMORY| MemLikelyFree       243247284     243247028     243247284     243247236


 *******************************************************************************
 *******************************************************************************
 **                                                                           **
 **     #####                         ##              ##                      **
 **    ##   ##            ##          ##              ##                      **
 **   ##     ##                       ##            ######                    **
 **   ##     ##  ##   ##  ##   #####  ##  ##   ####   ##    #####    #####    **
 **   ##     ##  ##   ##  ##  ##      ## ##   ##      ##   ##   ##  ##   ##   **
 **   ##  ## ##  ##   ##  ##  ##      ####     ###    ##   ######   ######    **
 **    ##  ###   ##   ##  ##  ##      ## ##      ##   ##   ##       ##        **
 **     #######   #####   ##   #####  ##  ##  ####    ##    #####   ##        **
 **           ##                                                    ##        **
 **                                                                           **
 **                                                ... make the atoms dance   **
 **                                                                           **
 **            Copyright (C) by CP2K developers group (2000-2021)             **
 **                      J. Chem. Phys. 152, 194103 (2020)                    **
 **                                                                           **
 *******************************************************************************


 TOTAL NUMBERS AND MAXIMUM NUMBERS

  Total number of            - Atomic kinds:                                   3
                             - Atoms:                                         67
                             - Shell sets:                                    70
                             - Shells:                                       338
                             - Primitive Cartesian functions:                341
                             - Cartesian basis functions:                    938
                             - Spherical basis functions:                    872

  Maximum angular momentum of- Orbital basis functions:                        2
                             - Local part of the GTH pseudopotential:          2
                             - Non-local part of the GTH pseudopotential:      0


 SCF PARAMETERS         Density guess:                                   RESTART
                        --------------------------------------------------------
                        max_scf:                                              20
                        max_scf_history:                                       0
                        max_diis:                                              4
                        --------------------------------------------------------
                        eps_scf:                                        5.00E-07
                        eps_scf_history:                                0.00E+00
                        eps_diis:                                       1.00E-01
                        eps_eigval:                                     1.00E-05
                        --------------------------------------------------------
                        level_shift [a.u.]:                                 0.00
                        added MOs                                        20    0
                        --------------------------------------------------------
                        Mixing method:                            BROYDEN_MIXING
                                                charge density mixing in g-space
                        --------------------------------------------------------
                        Smear method:                                FERMI_DIRAC
                        Electronic temperature [K]:                        300.0
                        Electronic temperature [a.u.]:                  9.50E-04
                        Accuracy threshold:                             1.00E-10
                        --------------------------------------------------------
                        Outer loop SCF in use 
                        No variables optimised in outer loop
                        eps_scf                                         5.00E-07
                        max_scf                                               20
                        No outer loop optimization
                        step_size                                       5.00E-01

 Number of electrons:                                                        264
 Number of occupied orbitals:                                                132
 Number of molecular orbitals:                                               152

 Number of orbital functions:                                                872
 Number of independent orbital functions:                                    872

 Extrapolation method: initial_guess

 *** WARNING in qs_initial_guess.F:309 :: User requested to restart the    ***
 *** wavefunction from the file named: MAT-H2O-RESTART.wfn. This file does ***
 *** not exist. Please check the existence of the file or change properly  ***
 *** the value of the keyword WFN_RESTART_FILE_NAME. Calculation continues ***
 *** using ATOMIC GUESS.                                                   ***



 SCF WAVEFUNCTION OPTIMIZATION

  Step     Update method      Time    Convergence         Total energy    Change
  ------------------------------------------------------------------------------
     1 NoMix/Diag. 0.40E+00    0.6     0.95442615      -378.6003911929 -3.79E+02
     2 Broy./Diag. 0.40E+00    0.8     0.34805111      -371.2615098657  7.34E+00
     3 Broy./Diag. 0.40E+00    0.8     0.02190293      -379.1225961377 -7.86E+00
     4 Broy./Diag. 0.40E+00    0.8     0.00988363      -382.3394311353 -3.22E+00
     5 Broy./Diag. 0.40E+00    0.8     0.00323172      -382.5515690861 -2.12E-01
     6 Broy./Diag. 0.40E+00    0.8     0.00170191      -382.2309366769  3.21E-01
     7 Broy./Diag. 0.40E+00    0.8     0.00171752      -382.1728904379  5.80E-02
     8 Broy./Diag. 0.40E+00    0.8     0.00109947      -382.1700123319  2.88E-03
     9 Broy./Diag. 0.40E+00    0.8     0.00099596      -382.1590312818  1.10E-02
    10 Broy./Diag. 0.40E+00    0.8     0.00028524      -382.1579284760  1.10E-03
    11 Broy./Diag. 0.40E+00    0.8     0.00024305      -382.1564140160  1.51E-03
    12 Broy./Diag. 0.40E+00    0.8     0.00008705      -382.1569800918 -5.66E-04
    13 Broy./Diag. 0.40E+00    0.8     0.00010731      -382.1569148373  6.53E-05
    14 Broy./Diag. 0.40E+00    0.8     0.00003299      -382.1562363185  6.79E-04
    15 Broy./Diag. 0.40E+00    0.8     0.00001060      -382.1559399423  2.96E-04
    16 Broy./Diag. 0.40E+00    0.8     0.00002893      -382.1560034446 -6.35E-05
    17 Broy./Diag. 0.40E+00    0.8     0.00000677      -382.1561594541 -1.56E-04
    18 Broy./Diag. 0.40E+00    0.8     0.00000166      -382.1561931285 -3.37E-05
    19 Broy./Diag. 0.40E+00    0.8     0.00000128      -382.1562202549 -2.71E-05
    20 Broy./Diag. 0.40E+00    0.8     0.00000032      -382.1562454717 -2.52E-05

  *** SCF run converged in    20 steps ***


  Electronic density on regular grids:       -264.0000000000        0.0000000000
  Core density on regular grids:              263.9999999998       -0.0000000002
  Total charge density on r-space grids:       -0.0000000002
  Total charge density g-space grids:          -0.0000000002

  Overlap energy of the core charge distribution:               0.00000566113203
  Self energy of the core charge distribution:               -897.78766230971098
  Core Hamiltonian energy:                                    276.35702655623066
  Hartree energy:                                             354.74390195617849
  Exchange-correlation energy:                               -115.28530019203747
  Dispersion energy:                                           -0.18421714350556
  Electronic entropic energy:                                  -0.00000000000000
  Fermi energy:                                                -0.07647464018312

  Total energy:                                              -382.15624547171291

  outer SCF iter =    1 RMS gradient =   0.32E-06 energy =       -382.1562454717
  outer SCF loop converged in   1 iterations or   20 steps


 ENERGY| Total FORCE_EVAL ( QS ) energy [a.u.]:             -382.156245471712907

 -------------------------------------------------------------------------------
 -                                                                             -
 -                                DBCSR STATISTICS                             -
 -                                                                             -
 -------------------------------------------------------------------------------
 COUNTER                                    TOTAL       BLAS       SMM       ACC
 flops     9 x    22 x    24               190080     100.0%      0.0%      0.0%
 flops    22 x     9 x    24               190080     100.0%      0.0%      0.0%
 flops     9 x     9 x    24               233280     100.0%      0.0%      0.0%
 flops    22 x    22 x    24               464640     100.0%      0.0%      0.0%
 flops     9 x    22 x    32              1013760     100.0%      0.0%      0.0%
 flops    22 x     9 x    32              1013760     100.0%      0.0%      0.0%
 flops     9 x     9 x    32              1244160     100.0%      0.0%      0.0%
 flops    22 x    22 x    32              2478080     100.0%      0.0%      0.0%
 flops     9 x    13 x    24              7188480     100.0%      0.0%      0.0%
 flops    13 x     9 x    24              7188480     100.0%      0.0%      0.0%
 flops    22 x    13 x    24              8785920     100.0%      0.0%      0.0%
 flops    13 x    22 x    24              8785920     100.0%      0.0%      0.0%
 flops     9 x    13 x    32             38338560     100.0%      0.0%      0.0%
 flops    13 x     9 x    32             38338560     100.0%      0.0%      0.0%
 flops    22 x    13 x    32             46858240     100.0%      0.0%      0.0%
 flops    13 x    22 x    32             46858240     100.0%      0.0%      0.0%
 flops    13 x    13 x    24            337459200     100.0%      0.0%      0.0%
 flops    13 x    13 x    32           1799782400     100.0%      0.0%      0.0%
 flops inhomo. stacks                           0       0.0%      0.0%      0.0%
 flops total                         2.346412E+09     100.0%      0.0%      0.0%
 flops max/rank                     30.667520E+06     100.0%      0.0%      0.0%
 matmuls inhomo. stacks                         0       0.0%      0.0%      0.0%
 matmuls total                             227800     100.0%      0.0%      0.0%
 number of processed stacks                 20500     100.0%      0.0%      0.0%
 average stack size                                    11.1       0.0       0.0
 marketing flops                     4.014828E+09
 -------------------------------------------------------------------------------
 # multiplications                             20
 max memory usage/rank             344.301568E+06
 # max total images/rank                        2
 # max 3D layers                                1
 # MPI messages exchanged                   74240
 MPI messages size (bytes):
  total size                       466.554880E+06
  min size                           0.000000E+00
  max size                          29.952000E+03
  average size                       6.284414E+03
 MPI breakdown and total messages size (bytes):
             size <=      128               51040                        0
       128 < size <=     8192                   0                        0
      8192 < size <=    32768               23200                466554880
     32768 < size <=   131072                   0                        0
    131072 < size <=  4194304                   0                        0
   4194304 < size <= 16777216                   0                        0
  16777216 < size                               0                        0
 -------------------------------------------------------------------------------

 *** WARNING in dbcsr_mm.F:294 :: Using a non-square number of MPI ranks ***
 *** might lead to poor performance. Used ranks: 128 Suggested: 121 256  ***

 -------------------------------------------------------------------------------
 -                                                                             -
 -                      DBCSR MESSAGE PASSING PERFORMANCE                      -
 -                                                                             -
 -------------------------------------------------------------------------------
 ROUTINE             CALLS      AVE VOLUME [Bytes]
 MP_Bcast               19                     12.
 MP_Allreduce          196                     13.
 MP_Alltoall           572                  51920.
 MP_ISend             1280                   3590.
 MP_IRecv             1280                   2683.
 -------------------------------------------------------------------------------

 -------------------------------------------------------------------------------
 -                                                                             -
 -                                GRID STATISTICS                              -
 -                                                                             -
 -------------------------------------------------------------------------------
 LP    KERNEL             BACKEND                              COUNT     PERCENT
 4     collocate ortho    REF                                 951762      46.65%
 4     integrate ortho    REF                                 906440      44.43%
 2     collocate ortho    REF                                  46305       2.27%
 2     integrate ortho    REF                                  44100       2.16%
 3     collocate ortho    REF                                  38472       1.89%
 3     integrate ortho    REF                                  36640       1.80%
 0     collocate general  REF                                   8576       0.42%
 1     collocate ortho    REF                                   2394       0.12%
 1     integrate ortho    REF                                   2280       0.11%
 0     collocate ortho    REF                                   1680       0.08%
 0     integrate ortho    REF                                   1600       0.08%
 -------------------------------------------------------------------------------

 MEMORY| Estimated peak process memory [MiB]                                 329

 -------------------------------------------------------------------------------
 -                                                                             -
 -                         MESSAGE PASSING PERFORMANCE                         -
 -                                                                             -
 -------------------------------------------------------------------------------

 ROUTINE             CALLS      AVE VOLUME [Bytes]
 MP_Group                5
 MP_Bcast              173                3757928.
 MP_Allreduce          595                   1710.
 MP_Sync                45
 MP_Alltoall           323                3513386.
 MP_SendRecv           240                 432000.
 MP_ISendRecv        15621                  24960.
 MP_Wait             17779
 MP_comm_split          20
 MP_ISend             1826                 368632.
 MP_IRecv             1826                 368747.
 MP_Recv                15                  69760.
 -------------------------------------------------------------------------------


 -------------------------------------------------------------------------------
 -                                                                             -
 -                           R E F E R E N C E S                               -
 -                                                                             -
 -------------------------------------------------------------------------------
 
 CP2K version 9.1, the CP2K developers group (2021).
 CP2K is freely available from https://www.cp2k.org/ .

 Kuehne,Thomas D.; Iannuzzi,Marcella; Del Ben,Mauro;
 Rybkin,Vladimir V.; Seewald,Patrick; Stein,Frederick; Laino,Teodoro;
 Khaliullin,Rustam Z.; Schuett,Ole; Schiffmann,Florian; Golze,Dorothea;
 Wilhelm,Jan; Chulkov,Sergey; Bani-Hashemian,Mohammad Hossein;
 Weber,Valery; Borstnik,Urban; Taillefumier,Mathieu;
 Jakobovits,Alice Shoshana; Lazzaro,Alfio; Pabst,Hans; Mueller,Tiziano;
 Schade,Robert; Guidon,Manuel; Andermatt,Samuel; Holmberg,Nico;
 Schenter,Gregory K.; Hehn,Anna; Bussy,Augustin; Belleflamme,Fabian;
 Tabacchi,Gloria; Gloess,Andreas; Lass,Michael; Bethune,Iain;
 Mundy,Christopher J.; Plessl,Christian; Watkins,Matt;
 VandeVondele,Joost; Krack,Matthias; Hutter,Juerg. 
 The Journal of Chemical Physics, 152 (19), (2020). 
 CP2K: An electronic structure and molecular dynamics software package -
 Quickstep: Efficient and accurate electronic structure calculations.
 https://doi.org/10.1063/5.0007045

 Goerigk, Lars; Hansen, Andreas; Bauer, Christoph; Ehrlich, Stephan;
 Najibi, Asim; Grimme, Stefan. , 19 (48), (2017). 
 A look at the density functional theory zoo with the advanced GMTKN55 database
 for general main group thermochemistry, kinetics and noncovalent interactions.
 https://doi.org/10.1039/C7CP04913G

 Schuett, Ole; Messmer, Peter; Hutter, Juerg; VandeVondele, Joost. 
 Electronic Structure Calculations on Graphics Processing Units, John
 Wiley & Sons, Ltd, 173-190 (2016). 
 GPU-Accelerated Sparse Matrix-Matrix Multiplication for
 Linear Scaling Density Functional Theory.
 https://doi.org/10.1002/9781118670712.ch8

 Borstnik, U; VandeVondele, J; Weber, V; Hutter, J. 
 PARALLEL COMPUTING, 40 (5-6), 47-58 (2014). 
 Sparse matrix multiplication: The distributed block-compressed sparse
 row library.
 https://doi.org/10.1016/j.parco.2014.03.012

 Hutter, J; Iannuzzi, M; Schiffmann, F; VandeVondele, J. 
 WIREs Comput Mol Sci., 4 (1), 15-25 (2014). 
 CP2K: atomistic simulations of condensed matter systems.
 https://doi.org/10.1002/wcms.1159

 Marek, A; Blum, V; Johanni, R; Havu, V; Lang, B; Auckenthaler, T;
 Heinecke, A; Bungartz, H; Lederer, H. 
 Journal of Physics: Condensed Matter, 26 (21), (2014). 
 The ELPA library: scalable parallel eigenvalue solutions for
 electronic structure
 theory and computational science.
 https://doi.org/10.1088/0953-8984/26/21/213201

 Grimme, S; Ehrlich, S; Goerigk, L. 
 JOURNAL OF COMPUTATIONAL CHEMISTRY, 32, 1456 (2011). 
 Effect of the damping function in dispersion corrected density functional theory.
 https://doi.org/10.1002/jcc.21759

 Grimme, S; Antony, J; Ehrlich, S; Krieg, H. 
 JOURNAL OF CHEMICAL PHYSICS, 132 (15), 154104 (2010). 
 A consistent and accurate ab initio parametrization of density
 functional dispersion correction (DFT-D) for the 94 elements H-Pu.
 https://doi.org/10.1063/1.3382344

 VandeVondele, J; Hutter, J. 
 JOURNAL OF CHEMICAL PHYSICS, 127 (11), 114105 (2007). 
 Gaussian basis sets for accurate calculations on molecular systems in
 gas and condensed phases.
 https://doi.org/10.1063/1.2770708

 Krack, M. 
 THEORETICAL CHEMISTRY ACCOUNTS, 114 (1-3), 145-152 (2005). 
 Pseudopotentials for H to Kr optimized for gradient-corrected
 exchange-correlation functionals.
 https://doi.org/10.1007/s00214-005-0655-y

 VandeVondele, J; Krack, M; Mohamed, F; Parrinello, M; Chassaing, T;
 Hutter, J. COMPUTER PHYSICS COMMUNICATIONS, 167 (2), 103-128 (2005). 
 QUICKSTEP: Fast and accurate density functional calculations using a
 mixed Gaussian and plane waves approach.
 https://doi.org/10.1016/j.cpc.2004.12.014

 Frigo, M; Johnson, SG. 
 PROCEEDINGS OF THE IEEE, 93 (2), 216-231 (2005). 
 The design and implementation of FFTW3.
 https://doi.org/10.1109/JPROC.2004.840301

 Hartwigsen, C; Goedecker, S; Hutter, J. 
 PHYSICAL REVIEW B, 58 (7), 3641-3662 (1998). 
 Relativistic separable dual-space Gaussian pseudopotentials from H to Rn.
 https://doi.org/10.1103/PhysRevB.58.3641

 Zhang, YK; Yang, WT. 
 PHYSICAL REVIEW LETTERS, 80 (4), 890-890 (1998). 
 Comment on Generalized gradient approximation made simple.
 https://doi.org/10.1103/PhysRevLett.80.890

 Lippert, G; Hutter, J; Parrinello, M. 
 MOLECULAR PHYSICS, 92 (3), 477-487 (1997). 
 A hybrid Gaussian and plane wave density functional scheme.
 https://doi.org/10.1080/002689797170220

 Perdew, JP; Burke, K; Ernzerhof, M. 
 PHYSICAL REVIEW LETTERS, 77 (18), 3865-3868 (1996). 
 Generalized gradient approximation made simple.
 https://doi.org/10.1103/PhysRevLett.77.3865

 Goedecker, S; Teter, M; Hutter, J. 
 PHYSICAL REVIEW B, 54 (3), 1703-1710 (1996). 
 Separable dual-space Gaussian pseudopotentials.
 https://doi.org/10.1103/PhysRevB.54.1703


 -------------------------------------------------------------------------------
 -                                                                             -
 -                                T I M I N G                                  -
 -                                                                             -
 -------------------------------------------------------------------------------
 SUBROUTINE                       CALLS  ASD         SELF TIME        TOTAL TIME
                                MAXIMUM       AVERAGE  MAXIMUM  AVERAGE  MAXIMUM
 CP2K                                 1  1.0    0.112    0.126   18.008   18.013
 qs_energies                          1  2.0    0.007    0.011   17.340   17.349
 scf_env_do_scf                       1  3.0    0.000    0.002   16.441   16.447
 scf_env_do_scf_inner_loop           20  4.0    0.008    0.011   16.441   16.447
 qs_ks_update_qs_env                 20  5.0    0.001    0.001    7.232    7.237
 rebuild_ks_matrix                   20  6.0    0.003    0.003    7.228    7.232
 qs_ks_build_kohn_sham_matrix        20  7.0    0.010    0.015    7.226    7.230
 rs_pw_transfer                     206  9.4    0.004    0.006    4.941    5.154
 qs_rho_update_rho                   21  5.0    0.000    0.002    5.002    5.006
 calculate_rho_elec                  21  6.0    0.020    0.022    5.002    5.006
 density_rs2pw                       21  7.0    0.003    0.004    3.800    4.053
 sum_up_and_integrate                20  8.0    0.023    0.033    3.729    3.733
 integrate_v_rspace                  20  9.0    0.001    0.002    3.706    3.717
 pw_transfer                        306  9.0    0.058    0.066    3.403    3.550
 fft_wrap_pw1pw2                    266 10.0    0.003    0.004    3.255    3.401
 potential_pw2rs                     20 10.0    0.002    0.003    3.322    3.333
 fft_wrap_pw1pw2_530                102 10.2    0.294    0.347    2.997    3.127
 fft3d_ps                           266 12.0    1.314    1.478    2.480    2.610
 qs_vxc_create                       20  8.0    0.003    0.006    2.432    2.508
 xc_vxc_pw_create                    20  9.0    0.063    0.081    2.429    2.505
 gspace_mixing                       19  5.0    0.018    0.022    2.368    2.371
 qs_scf_new_mos                      20  5.0    0.003    0.005    2.118    2.126
 eigensolver                         20  6.0    0.003    0.005    1.963    1.965
 xc_rho_set_and_dset_create          20 10.0    0.040    0.055    1.669    1.926
 rs_pw_transfer_RS2PW_530            22  8.9    1.030    1.183    1.698    1.918
 broyden_mixing                      19  6.0    1.756    1.787    1.791    1.808
 mp_waitany                        1826 11.4    1.244    1.790    1.244    1.790
 cp_fm_diag_elpa                     20  7.0    0.000    0.000    1.746    1.753
 rs_pw_transfer_PW2RS_530            20 12.0    1.085    1.135    1.687    1.728
 cp_fm_redistribute_end              20  8.0    1.506    1.723    1.508    1.725
 cp_fm_diag_elpa_base                20  8.0    0.210    1.688    0.213    1.708
 pw_nn_compose_r                    120 10.5    0.677    0.719    0.995    1.510
 xc_functional_eval                  20 11.0    0.000    0.001    1.038    1.286
 pbe_lda_eval                        20 12.0    1.038    1.285    1.038    1.285
 grid_collocate_task_list            21  7.0    1.127    1.215    1.127    1.215
 mp_alltoall_z22v                   266 14.0    0.865    1.119    0.865    1.119
 mp_sendrecv_dm2                    240 11.5    0.317    0.882    0.317    0.882
 mp_waitall_1                     18193 11.5    0.671    0.764    0.671    0.764
 yz_to_x                            126 12.5    0.107    0.150    0.519    0.692
 x_to_yz                            140 13.4    0.183    0.220    0.636    0.688
 mp_sum_d                           581  3.4    0.314    0.631    0.314    0.631
 init_scf_run                         1  3.0    0.002    0.003    0.587    0.590
 rs_pw_transfer_PW2RS_180            20 12.0    0.155    0.181    0.357    0.439
 scf_env_initial_rho_setup            1  4.0    0.003    0.004    0.409    0.411
 pw_poisson_solve                    20  8.0    0.148    0.155    0.378    0.381
 grid_integrate_task_list            20 10.0    0.262    0.373    0.262    0.373
 -------------------------------------------------------------------------------

 The number of warnings for this run is : 2
 
 -------------------------------------------------------------------------------
  **** **** ******  **  PROGRAM ENDED AT                 2025-10-22 11:51:45.878
 ***** ** ***  *** **   PROGRAM RAN ON                                 nid003154
 **    ****   ******    PROGRAM RAN BY                                xr223_ukcp
 ***** **    ** ** **   PROGRAM PROCESS ID                                113299
  **** **  *******  **  PROGRAM STOPPED IN /mnt/lustre/a2fs-work3/work/e89/e89/x
                                           r223_ukcp/BINDING-ENERGY-DARREN/bindi
                                           ng-energy/2-leg/s+2.00/d+2.75
