LAMMPS (4 Feb 2025)
OMP_NUM_THREADS environment is not set. Defaulting to 1 thread. (src/comm.cpp:99)
  using 1 OpenMP thread(s) per MPI task
# LAMMPS script for continuing NVT simulation

atom_modify map yes
newton      on

read_restart nvt_prod.restart.1120000
Reading restart file ...
  restart file = 4 Feb 2025, LAMMPS = 4 Feb 2025
  restoring atom style full from restart
  orthogonal box = (0 0 0) to (154.008 148.2 151.07609)
  16 by 8 by 11 MPI processor grid
  pair style symmetrix/mace stores no restart info
  14640 atoms
Finding 1-2 1-3 1-4 neighbors ...
  special bond factors lj:    0        0        0       
  special bond factors coul:  0        0        0       
     0 = max # of 1-2 neighbors
     0 = max # of 1-3 neighbors
     0 = max # of 1-4 neighbors
     1 = max # of special neighbors
  special bonds CPU = 4.854 seconds
  read_restart CPU = 5.078 seconds

pair_style  symmetrix/mace
pair_coeff  * * ../../../../00-common/models/ch2o-dens-inv_swa-1-6-8.json C H O
Loading MACE model from '../../../../00-common/models/ch2o-dens-inv_swa-1-6-8.json' ... success
  mapping LAMMPS type 1 (C) to MACE type 1
  mapping LAMMPS type 2 (H) to MACE type 0
  mapping LAMMPS type 3 (O) to MACE type 2

group graphene type 1
8640 atoms in group graphene
group H2O type 2 3
6000 atoms in group H2O

thermo 1000

######### NVT production for 80 ps #############

dump DUMP1 all atom 100 nvt_prod_14.lammpstrj
timestep 0.001
fix NVT1 graphene nvt temp 300 300 0.1
Resetting global fix info from restart file:
  fix style: nvt, fix ID: NVT1
fix NVT2 H2O nvt temp 300 300 0.1
Resetting global fix info from restart file:
  fix style: nvt, fix ID: NVT2
run 80000
All restart file global fix info was re-assigned
Neighbor list info ...
  update: every = 1 steps, delay = 0 steps, check = yes
  max neighbors/atom: 2000, page size: 100000
  master list distance cutoff = 8
  ghost atom cutoff = 8
  binsize = 4, bins = 39 38 38
  1 neighbor lists, perpetual/occasional/extra = 1 0 0
  (1) pair symmetrix/mace, perpetual
      attributes: full, newton on
      pair build: full/bin
      stencil: full/bin/3d
      bin: standard
Per MPI rank memory allocation (min/avg/max) = 5.934 | 6.187 | 8.308 Mbytes
   Step          Temp          E_pair         E_mol          TotEng         Press     
   1120000   295.63474     -2279533.3      0             -2278973.9      14.868597    
   1121000   298.68022     -2279533.4      0             -2278968.2     -3.561518     
   1122000   302.29325     -2279529.7      0             -2278957.7      56.809895    
   1123000   301.91859     -2279544.1      0             -2278972.8      47.911082    
   1124000   299.84437     -2279541.2      0             -2278973.8      24.675615    
   1125000   298.78652     -2279545.2      0             -2278979.8      27.77713     
   1126000   297.85968     -2279538.2      0             -2278974.6      9.4740777    
   1127000   300.368       -2279542.8      0             -2278974.4      54.210691    
   1128000   298.24628     -2279535.6      0             -2278971.2      5.9355321    
   1129000   299.45539     -2279538.6      0             -2278972        33.062492    
   1130000   301.65568     -2279525.4      0             -2278954.6      12.250284    
   1131000   300.01448     -2279531.8      0             -2278964.1      34.144469    
   1132000   296.05772     -2279537.2      0             -2278976.9      11.224385    
   1133000   299.30331     -2279530.2      0             -2278963.9      27.342387    
   1134000   299.51881     -2279540.8      0             -2278974.1      19.291068    
   1135000   303.86012     -2279532.4      0             -2278957.4      20.516344    
   1136000   296.49104     -2279539.9      0             -2278978.8      16.302416    
   1137000   301.11819     -2279532.6      0             -2278962.8     -3.0130295    
   1138000   300.55401     -2279533.4      0             -2278964.6     -12.307758    
   1139000   301.70758     -2279531.5      0             -2278960.6      17.876616    
   1140000   301.28352     -2279541.4      0             -2278971.3      32.022821    
   1141000   303.01348     -2279531.4      0             -2278958       -12.310353    
   1142000   301.96382     -2279542.3      0             -2278970.9     -18.829571    
   1143000   302.94017     -2279536.3      0             -2278963.1      0.58473291   
   1144000   301.94423     -2279536.7      0             -2278965.4      0.90652069   
   1145000   298.04123     -2279533.3      0             -2278969.4     -24.527444    
   1146000   301.43058     -2279538.5      0             -2278968.1      6.3852945    
   1147000   300.38981     -2279540.6      0             -2278972.1      7.0779641    
   1148000   299.91404     -2279532.1      0             -2278964.6     -15.489314    
   1149000   301.91275     -2279530.7      0             -2278959.4     -8.9508043    
   1150000   302.5905      -2279541.6      0             -2278969        31.390805    
   1151000   300.84861     -2279530.8      0             -2278961.5     -31.391434    
   1152000   301.67151     -2279524.4      0             -2278953.6     -17.796846    
   1153000   297.25269     -2279531.9      0             -2278969.4     -49.403976    
   1154000   301.63705     -2279533.9      0             -2278963.1      2.4176474    
   1155000   301.0486      -2279534.9      0             -2278965.3      32.604064    
   1156000   299.02879     -2279540.1      0             -2278974.3      45.826893    
   1157000   299.382       -2279535.5      0             -2278969        17.239851    
   1158000   300.32974     -2279538.7      0             -2278970.4     -18.708579    
   1159000   302.11595     -2279531        0             -2278959.3      18.733416    
   1160000   299.00493     -2279527.7      0             -2278961.9      36.514475    
   1161000   300.73809     -2279535.7      0             -2278966.6      9.2108776    
   1162000   302.08473     -2279528.1      0             -2278956.5      23.02341     
   1163000   299.42093     -2279546.2      0             -2278979.6     -14.751868    
   1164000   300.85494     -2279535.6      0             -2278966.3     -23.97596     
   1165000   300.79409     -2279533.7      0             -2278964.5      6.0405819    
   1166000   296.89362     -2279535.8      0             -2278974        13.23009     
   1167000   300.43418     -2279525.4      0             -2278956.9     -14.961876    
   1168000   301.29504     -2279538        0             -2278967.9      15.609749    
   1169000   297.20971     -2279533.8      0             -2278971.4     -18.86905     
   1170000   299.55534     -2279530.9      0             -2278964.1     -40.202756    
   1171000   297.72528     -2279534.9      0             -2278971.6      29.369996    
   1172000   299.51967     -2279533.4      0             -2278966.6      20.65962     
   1173000   302.11109     -2279532.7      0             -2278961        6.2643129    
   1174000   299.35113     -2279537.6      0             -2278971.2      10.294301    
   1175000   300.52677     -2279539        0             -2278970.4      63.220389    
   1176000   299.31323     -2279539.9      0             -2278973.6      53.445566    
   1177000   298.96276     -2279533.6      0             -2278967.9      6.7639669    
   1178000   298.56291     -2279534.7      0             -2278969.7     -7.5777296    
   1179000   299.15523     -2279537.3      0             -2278971.3      37.810855    
   1180000   303.13091     -2279531        0             -2278957.4      61.363371    
   1181000   300.57778     -2279531.8      0             -2278963       -12.109434    
   1182000   300.54309     -2279542.5      0             -2278973.8     -0.65752257   
   1183000   299.76121     -2279538.2      0             -2278971        41.172398    
   1184000   298.3251      -2279532.5      0             -2278968       -31.235536    
   1185000   302.27305     -2279534.4      0             -2278962.4      0.76268087   
   1186000   297.7098      -2279536.9      0             -2278973.6     -18.150455    
   1187000   296.96491     -2279523.8      0             -2278961.9     -24.185812    
   1188000   299.13881     -2279531.4      0             -2278965.3     -9.0550605    
   1189000   298.89148     -2279531.5      0             -2278965.9      25.53335     
   1190000   301.55283     -2279530.8      0             -2278960.2     -1.6490997    
   1191000   298.71362     -2279533.2      0             -2278968        14.884033    
   1192000   299.93208     -2279528.8      0             -2278961.2     -30.112358    
   1193000   300.14209     -2279538.6      0             -2278970.6      46.32923     
   1194000   300.14921     -2279535.3      0             -2278967.3      21.650531    
   1195000   298.60688     -2279538.5      0             -2278973.4      0.1342119    
   1196000   301.20197     -2279527        0             -2278957       -1.6035841    
   1197000   299.73251     -2279530.1      0             -2278963       -21.922973    
   1198000   300.0424      -2279529.9      0             -2278962.2      10.206933    
   1199000   298.47638     -2279537.3      0             -2278972.6      47.843992    
   1200000   304.59363     -2279536.3      0             -2278960        33.442424    
Loop time of 53218.3 on 1408 procs for 80000 steps with 14640 atoms

Performance: 0.130 ns/day, 184.786 hours/ns, 1.503 timesteps/s, 22.007 katom-step/s
100.0% CPU use with 1408 MPI tasks x 1 OpenMP threads

MPI task timing breakdown:
Section |  min time  |  avg time  |  max time  |%varavg| %total
---------------------------------------------------------------
Pair    | 0.14091    | 4992.4     | 52392      |15878.9 |  9.38
Bond    | 0.00315    | 0.0070901  | 0.03565    |   7.8 |  0.00
Neigh   | 0.015525   | 0.15471    | 5.3644     | 132.2 |  0.00
Comm    | 0.53147    | 1814.8     | 21702      |10073.8 |  3.41
Output  | 0.5972     | 7.2435     | 14.562     | 154.5 |  0.01
Modify  | 164.99     | 46394      | 53201      |6797.7 | 87.18
Other   |            | 9.85       |            |       |  0.02

Nlocal:        10.3977 ave         277 max           0 min
Histogram: 1262 4 99 9 6 6 2 4 6 10
Nghost:        97.4801 ave        1795 max           0 min
Histogram: 1111 193 42 18 18 7 5 5 6 3
Neighs:              0 ave           0 max           0 min
Histogram: 1408 0 0 0 0 0 0 0 0 0
FullNghs:      1308.83 ave       54096 max           0 min
Histogram: 1356 13 7 7 3 2 3 4 6 7

Total # of neighbors = 1842832
Ave neighs/atom = 125.8765
Ave special neighs/atom = 0
Neighbor list builds = 3978
Dangerous builds = 0

write_restart nvt_prod.restart.*
System init for write_restart ...
write_data nvt_prod_final.lammps-data
System init for write_data ...

Total wall time: 14:47:31
