LAMMPS data file via write_data, version 4 Feb 2025, timestep = 1200000, units = metal

14640 atoms
3 atom types

0 154.00799999999998 xlo xhi
0 148.2 ylo yhi
0 151.07609208607428 zlo zhi

Masses

1 12.01099999691024
2 1.007999999740698
3 15.99899999588435

Atoms # full

6042 0 1 0 3.633908184977084 3.512856225502811 139.8939409772199 1 0 0
5981 0 1 0 2.8647221660569873 2.276359423762778 139.85028676916508 1 0 0
5990 0 1 0 3.558981440883043 0.9764990400814261 139.89973351773898 1 0 0
5980 0 1 0 1.418974473208164 2.2252739731876363 139.93630126735647 1 0 0
5979 0 1 0 0.7130389917753371 1.055941447133828 140.05564432338863 1 0 0
6031 0 1 0 0.7304581648893407 3.4988389579197046 140.00553628942725 1 0 0
5999 0 1 0 4.969405034414789 0.9736742269319376 139.90120437095138 1 0 0
6051 0 1 0 5.097292921278887 3.47797913480389 139.90966531309866 1 0 0
6000 0 1 0 5.740465480189649 2.191519109347412 139.84773191549462 1 0 0
6679 0 1 0 9.277849267543276 0.9922441921574545 140.06052864367538 1 0 0
6670 0 1 0 7.894816134951625 0.9869775211638221 140.04095580721457 1 0 0
5941 0 1 0 7.148958617451335 2.258531886689411 139.92872448804928 1 0 0
6722 0 1 0 7.919550988565287 3.481128869356676 140.03260438494067 1 0 0
6731 0 1 0 9.322885229398688 3.4318641648290784 140.12891744963287 1 0 0
6033 0 1 0 0.7341584336968107 5.973889770125503 140.0915194854293 1 0 0
6032 0 1 0 1.4817530499669687 4.727141642878461 140.01379336804033 1 0 0
6044 0 1 0 3.671984227482123 5.9398112099036435 140.02185768550726 1 0 0
6045 0 1 0 2.9368027006270867 7.188905829306438 140.0948534725084 1 0 0
6043 0 1 0 2.9012896168599727 4.731854413885783 140.0147767714252 1 0 0
6034 0 1 0 1.4765104069936053 7.184249962755022 140.12593809464113 1 0 0
6046 0 1 0 3.6362012319115116 8.403438636025262 140.20248519024815 1 0 0
6035 0 1 0 0.8184404336852595 8.44813941442135 140.2935178619759 1 0 0
6053 0 1 0 5.051038230194993 5.970995723669691 139.97851033095648 1 0 0
6055 0 1 0 5.009712833645753 8.396790036457597 140.31069667254752 1 0 0
6052 0 1 0 5.770528574365388 4.7385397963843054 139.98534632075567 1 0 0
6054 0 1 0 5.76362490938946 7.168417690756588 140.20602928744626 1 0 0
6724 0 1 0 7.951393357547114 5.939423997741533 140.23635016169908 1 0 0
6005 0 1 0 7.242159322107125 7.144347408780996 140.29432870175592 1 0 0
6733 0 1 0 9.343234623202692 5.935899614374468 140.3109005432422 1 0 0
6003 0 1 0 7.1991548809320225 4.711980874454333 140.04539589512464 1 0 0
6726 0 1 0 7.905422517801967 8.369758977527248 140.49346915291883 1 0 0
6735 0 1 0 9.355940013114353 8.372166676096969 140.54340367833262 1 0 0
6039 0 1 0 0.7856313584425818 13.304636868397102 140.39663874816608 1 0 0
6048 0 1 0 3.6360779639930407 10.882264992935777 140.46622058043656 1 0 0
6047 0 1 0 2.916518725688121 9.669636081866756 140.39973742190335 1 0 0
6049 0 1 0 2.963352632917423 12.125372897408955 140.48193026232465 1 0 0
6036 0 1 0 1.4901335591647753 9.661750107668036 140.38658401960808 1 0 0
6050 0 1 0 3.6201031953765552 13.367721442751233 140.48157810214843 1 0 0
6038 0 1 0 1.5012539021432294 12.167656986299589 140.41067341228896 1 0 0
6037 0 1 0 0.8111094725958966 10.944492723264553 140.34949900108586 1 0 0
6057 0 1 0 5.0318005005379165 10.873044589123289 140.51443219802158 1 0 0
6059 0 1 0 5.05989033851332 13.341757005424991 140.44633585141852 1 0 0
6058 0 1 0 5.729269501379798 12.122128140063701 140.54551725636915 1 0 0
6056 0 1 0 5.756500390333186 9.589263990535057 140.3804553949556 1 0 0
6737 0 1 0 9.34730691499637 10.881463062476383 140.63922918598757 1 0 0
6728 0 1 0 7.871509371486096 10.936412114941245 140.60284118840593 1 0 0
6007 0 1 0 7.162608535358261 9.62511753466318 140.54628804376503 1 0 0
6009 0 1 0 7.192106706954495 12.130816392957115 140.61826220597132 1 0 0
6730 0 1 0 7.858517160969682 13.357483317065903 140.74890969766264 1 0 0
6739 0 1 0 9.313657826501107 13.383404146327086 140.7829379621036 1 0 0
6091 0 1 0 0.738483933794116 15.791306449637595 140.38701398380803 1 0 0
6103 0 1 0 2.9002452387067796 17.054403166318146 140.35260966320877 1 0 0
6092 0 1 0 1.4768398469717696 17.04780836406884 140.42077543973278 1 0 0
6040 0 1 0 1.4538488647668242 14.58454576644636 140.35726567906372 1 0 0
6102 0 1 0 3.6251945458351016 15.823235771514891 140.2736160632233 1 0 0
6041 0 1 0 2.860027966096277 14.594822388269822 140.38075521590284 1 0 0
6104 0 1 0 3.6211569684576053 18.274939275212745 140.42033299770185 1 0 0
6093 0 1 0 0.7671241151927365 18.28945452238277 140.47014867785862 1 0 0
6001 0 1 0 7.2086624161495605 14.59015809231454 140.42403681293752 1 0 0
6111 0 1 0 5.03009586733511 15.848338056023458 140.2956764944928 1 0 0
6063 0 1 0 7.218131460233969 17.054154768843908 140.41132317433596 1 0 0
6060 0 1 0 5.749545922050395 14.598480381672342 140.33177129364228 1 0 0
6782 0 1 0 7.898695289111417 15.8339582885142 140.46926611250356 1 0 0
6791 0 1 0 9.33888214765276 15.85251737382072 140.66806540467434 1 0 0
6112 0 1 0 5.790045690479247 17.068628722136403 140.3168350686716 1 0 0
6793 0 1 0 9.341623048515094 18.24070150176459 140.82174258528764 1 0 0
6784 0 1 0 7.9524854933804 18.298121300985226 140.66272579106888 1 0 0
6113 0 1 0 5.028162970158541 18.305701844057534 140.3746550963548 1 0 0
6105 0 1 0 2.9249695962935784 19.487691756126257 140.4437345958055 1 0 0
6106 0 1 0 3.625288479434556 20.734115961217093 140.66256878035674 1 0 0
6095 0 1 0 0.7633951369900378 20.765380082555826 140.3684626835496 1 0 0
6094 0 1 0 1.5012766525360233 19.527744686044475 140.43837226427405 1 0 0
6107 0 1 0 2.9161230711229305 21.968994642499695 140.55815205117833 1 0 0
6096 0 1 0 1.5111580347242324 21.97407966611646 140.3982097876932 1 0 0
6115 0 1 0 5.047065822001014 20.697053104789813 140.74202594802856 1 0 0
6116 0 1 0 5.837398124179349 22.00758631325403 140.698343475818 1 0 0
6786 0 1 0 7.928160008991829 20.74215576736064 140.6784391409849 1 0 0
6065 0 1 0 7.2538540985018045 19.543409054185886 140.64821245162872 1 0 0
6114 0 1 0 5.820253982457057 19.519295179833346 140.54856651660063 1 0 0
6795 0 1 0 9.363161031220274 20.74840960477227 140.69943009677266 1 0 0
6067 0 1 0 7.248057710333822 21.985854899332207 140.6306957925127 1 0 0
6108 0 1 0 3.613755117278232 23.193564395761346 140.48894773852538 1 0 0
6098 0 1 0 1.4328255079882362 24.454457956897848 140.1897899741024 1 0 0
6097 0 1 0 0.7548509134672736 23.149223588532635 140.19616608573148 1 0 0
6101 0 1 0 2.8671980484784676 26.908009464350883 139.92065461536046 1 0 0
6109 0 1 0 2.8489349043105356 24.396652614389062 140.28704969645128 1 0 0
6110 0 1 0 3.577521606897925 25.649926835303297 140.12964449493103 1 0 0
6099 0 1 0 0.7244949915555128 25.709323688648784 139.98276276078647 1 0 0
6100 0 1 0 1.436858508808711 26.900964089977897 139.903843845114 1 0 0
6788 0 1 0 7.954742398211963 23.213707661166335 140.62173852322124 1 0 0
6117 0 1 0 5.073237274661266 23.17622532748439 140.5303130699299 1 0 0
6797 0 1 0 9.359293531978523 23.235223886592486 140.7235874391184 1 0 0
6119 0 1 0 4.988754791719958 25.59137334960565 140.18074145708712 1 0 0
6069 0 1 0 7.1724083878102105 24.421042478887024 140.49802416342015 1 0 0
6790 0 1 0 7.905664981927805 25.60847272841238 140.32360450273464 1 0 0
6061 0 1 0 7.221226739893771 26.87245736945622 140.12815471740015 1 0 0
6118 0 1 0 5.72481585610737 24.409248100699852 140.37635375989808 1 0 0
6799 0 1 0 9.375045801500844 25.71808301576897 140.50875180178335 1 0 0
6120 0 1 0 5.7961264627742155 26.80785938096762 139.96594702461914 1 0 0
6162 0 1 0 3.613426839880548 28.100402345428996 139.76889786460467 1 0 0
6163 0 1 0 2.898337691631362 29.390354172730614 139.68829585761628 1 0 0
6164 0 1 0 3.6357591834944687 30.6072309638274 139.6640141684278 1 0 0
6154 0 1 0 1.4971508400755478 31.856340005744006 139.67600882468875 1 0 0
6165 0 1 0 2.945007704523928 31.85308727864898 139.77524372941113 1 0 0
6152 0 1 0 1.5094908818293913 29.382975595166602 139.71193121012251 1 0 0
6153 0 1 0 0.8276629092337648 30.59088430415778 139.62982767073035 1 0 0
6151 0 1 0 0.7449648496281736 28.165974845634878 139.75545471582814 1 0 0
6173 0 1 0 5.014668069344607 30.562618180285206 139.79306540374554 1 0 0
6171 0 1 0 5.062325809836748 28.029633826288773 139.88564010017765 1 0 0
6842 0 1 0 7.944633294083558 28.13324099670209 140.1628755650745 1 0 0
6123 0 1 0 7.173841551997056 29.31566890404483 140.01061865834214 1 0 0
6851 0 1 0 9.354407054343733 28.09456522555273 140.4269166824825 1 0 0
6844 0 1 0 7.86367074488627 30.630791584139846 140.1251086361819 1 0 0
6853 0 1 0 9.338632310015756 30.63882223732136 140.21925030391827 1 0 0
6172 0 1 0 5.7634816677551335 29.32586599986323 139.81133707806316 1 0 0
6174 0 1 0 5.773173418381011 31.770995106557525 139.8380636539086 1 0 0
6125 0 1 0 7.1748083586420766 31.830877147071625 140.01686862875505 1 0 0
6157 0 1 0 0.7859975099356186 35.57496155404063 139.62061837617628 1 0 0
6168 0 1 0 3.574198127555022 35.55292477213468 139.9626817010847 1 0 0
6166 0 1 0 3.690057570517263 33.061502450027085 139.9424363298797 1 0 0
6167 0 1 0 2.9535983073028755 34.306962435053805 139.92262982061607 1 0 0
6156 0 1 0 1.4848876687177421 34.334098514578734 139.7117035489042 1 0 0
6158 0 1 0 1.497700455164326 36.85086136913395 139.77596807421403 1 0 0
6155 0 1 0 0.7524297136899987 33.08953277635596 139.6296700921315 1 0 0
6169 0 1 0 2.871122658161777 36.79693128155177 139.91833735709184 1 0 0
6846 0 1 0 7.908240229236043 33.06326319926943 140.14896399536693 1 0 0
6857 0 1 0 9.352913341174325 35.58839588005392 140.02052265196423 1 0 0
6178 0 1 0 5.7617847915249785 36.72002735045354 139.94569725928307 1 0 0
6177 0 1 0 5.038158035318701 35.55217297663472 139.92951709379705 1 0 0
6176 0 1 0 5.795737879159314 34.26782579047995 139.96729673064686 1 0 0
6848 0 1 0 7.908267560329081 35.51002919617752 139.955411643723 1 0 0
6127 0 1 0 7.228318623504721 34.28116324167937 140.00701305539127 1 0 0
6855 0 1 0 9.336478800624018 33.11719686223772 140.1661489018246 1 0 0
6175 0 1 0 5.0984948656267255 33.05421766052844 139.86778050354647 1 0 0
6129 0 1 0 7.209964592560366 36.76481386074493 139.94403626271733 1 0 0
6211 0 1 0 0.7475619494328194 40.51618728565295 139.41730771656407 1 0 0
6222 0 1 0 3.6805625745580426 40.473234059871984 139.58968944564927 1 0 0
6161 0 1 0 2.960617380470119 39.24864596293617 139.69741645012292 1 0 0
6170 0 1 0 3.64262330378479 37.992647719554604 139.83401739809358 1 0 0
6159 0 1 0 0.7896659809519582 38.055445854037245 139.52270119742846 1 0 0
6160 0 1 0 1.4922312767670247 39.27755987778141 139.6113844356519 1 0 0
6223 0 1 0 2.9419249465990673 41.66068486743251 139.3549268090024 1 0 0
6231 0 1 0 5.074928718059478 40.47536967708225 139.55272819789795 1 0 0
6179 0 1 0 5.090821680403084 37.967396811341985 139.7814079513147 1 0 0
6911 0 1 0 9.355102358582476 40.48563745156162 139.72254984682655 1 0 0
6902 0 1 0 7.925228768573565 40.50096753358494 139.73846032256512 1 0 0
6180 0 1 0 5.829131206533139 39.275665359334276 139.67869383479606 1 0 0
6121 0 1 0 7.238267877703303 39.23174138836008 139.65192310485733 1 0 0
6850 0 1 0 7.958705452870495 37.988416416215635 139.84842410400847 1 0 0
6859 0 1 0 9.40850876382464 38.05412230251877 139.97258302446667 1 0 0
6214 0 1 0 1.523348034874022 44.19202891349206 139.1441367322394 1 0 0
6224 0 1 0 3.665721410681632 42.9198168354549 139.41482303496187 1 0 0
6226 0 1 0 3.624821237195081 45.40046749405767 139.43532783252328 1 0 0
6212 0 1 0 1.5126629331299104 41.71464675357653 139.28976727501302 1 0 0
6225 0 1 0 2.9144756121574904 44.16221287958367 139.32164111185747 1 0 0
6213 0 1 0 0.8440978822120959 42.962813161552646 139.14824295601008 1 0 0
6215 0 1 0 0.8007357932778338 45.42410454889847 139.0273380058552 1 0 0
6233 0 1 0 5.116099801546298 42.96895459805011 139.5838500866373 1 0 0
6235 0 1 0 5.070452424493344 45.44263616062699 139.47735517045405 1 0 0
6234 0 1 0 5.806680546976987 44.23735017936758 139.52768942280062 1 0 0
6183 0 1 0 7.253776904606362 41.739298258145205 139.67799164047307 1 0 0
6904 0 1 0 8.040167384520318 42.97391503970298 139.63726273300264 1 0 0
6232 0 1 0 5.845214549596597 41.73319922956937 139.61106729778479 1 0 0
6913 0 1 0 9.46389846688979 42.945628919920665 139.64821872508355 1 0 0
6915 0 1 0 9.409935752812316 45.464549473795174 139.66157566685334 1 0 0
6185 0 1 0 7.2731001374419435 44.229592561318526 139.51668744942623 1 0 0
6906 0 1 0 7.954790243693085 45.47397103953271 139.61964494201635 1 0 0
6228 0 1 0 3.6791267081345134 47.8872231340765 139.39375571213913 1 0 0
6230 0 1 0 3.62434360640192 50.333268692311144 139.44478214661976 1 0 0
6229 0 1 0 2.999647710396539 49.11882139534396 139.24380195953745 1 0 0
6227 0 1 0 2.9188815626557703 46.65708149645197 139.38100018027154 1 0 0
6216 0 1 0 1.5134220865013346 46.637990546450304 139.04754712478325 1 0 0
6218 0 1 0 1.5471983511274843 49.1087688495472 138.94803244342071 1 0 0
6219 0 1 0 0.8417193292478191 50.3461364664391 138.82225260022662 1 0 0
6217 0 1 0 0.8492124025317871 47.920790212639886 138.93710289603368 1 0 0
6237 0 1 0 5.08317172071397 47.942373382269146 139.5387115645373 1 0 0
6239 0 1 0 5.071097023903518 50.36871767705162 139.55834341487667 1 0 0
6919 0 1 0 9.358208147803689 50.40044961243948 140.03543033201262 1 0 0
6910 0 1 0 7.966511492900623 50.37539436247884 139.79576519959778 1 0 0
6187 0 1 0 7.237220844110397 46.69215987844823 139.57893919916398 1 0 0
6236 0 1 0 5.808607232724665 46.695000638308734 139.48303455151913 1 0 0
6917 0 1 0 9.365102492801803 47.9105069727848 139.85308785297488 1 0 0
6908 0 1 0 7.934687957729331 47.90270687400532 139.6798626548992 1 0 0
6238 0 1 0 5.810474975118289 49.18603915211992 139.5406264047761 1 0 0
6189 0 1 0 7.224983793379258 49.11490957598157 139.69943513376086 1 0 0
6271 0 1 0 0.8306035786408814 52.843542010950785 138.87618727099425 1 0 0
6220 0 1 0 1.5182676195083544 51.60451489258161 138.96036785229938 1 0 0
6221 0 1 0 2.9091383218665987 51.55632346447704 139.27388522763448 1 0 0
6272 0 1 0 1.5525942441186218 54.04989065490773 139.06118141623918 1 0 0
6283 0 1 0 2.970200364489597 54.04466208977278 139.4248156353058 1 0 0
6282 0 1 0 3.684801557064026 52.77781865009038 139.3734866333311 1 0 0
6273 0 1 0 0.7902754514004788 55.275325241932876 139.03878741300184 1 0 0
6284 0 1 0 3.6979606974015597 55.29679376777607 139.42692740034965 1 0 0
6291 0 1 0 5.071149459168495 52.77116881478276 139.6439340072934 1 0 0
6964 0 1 0 7.922723818924732 55.271177934350135 140.01449885592808 1 0 0
6973 0 1 0 9.349869847520566 55.33173251790736 140.0497922044223 1 0 0
6181 0 1 0 7.199935862792704 51.545385969689846 139.66276948414216 1 0 0
6240 0 1 0 5.787527989855616 51.559484192090736 139.62928677171058 1 0 0
6292 0 1 0 5.787922381907517 54.04187015234191 139.6963443284257 1 0 0
6962 0 1 0 7.918711191962962 52.75670713009725 139.87060274956002 1 0 0
6971 0 1 0 9.36308285621799 52.81823942285708 140.0352343504387 1 0 0
6243 0 1 0 7.210550440124851 53.99138628143804 139.94753743986564 1 0 0
6293 0 1 0 5.09451482464974 55.31791410910332 139.4734567337025 1 0 0
6286 0 1 0 3.592697517693855 57.7368921616033 139.6033393036492 1 0 0
6287 0 1 0 2.8756398987433616 58.98350390967281 139.607857628594 1 0 0
6276 0 1 0 1.428932986819763 58.98996780357894 139.51815775429088 1 0 0
6275 0 1 0 0.745775602208453 57.758899948975305 139.4238134352424 1 0 0
6285 0 1 0 2.9404296900042723 56.5274273820673 139.4049437361182 1 0 0
6274 0 1 0 1.5069989042365126 56.49955833465972 139.29572446136225 1 0 0
6295 0 1 0 5.010811103674709 57.7576732059867 139.65239739603228 1 0 0
6294 0 1 0 5.752493154257336 56.52055712518413 139.7648997650846 1 0 0
6966 0 1 0 7.862133545106713 57.77419473233992 140.01749484121265 1 0 0
6975 0 1 0 9.305293284531494 57.81174048092118 140.04577301966825 1 0 0
6247 0 1 0 7.161402825613723 59.010673138830924 139.90585290886872 1 0 0
6245 0 1 0 7.183124858802838 56.53214935047717 139.8732566273046 1 0 0
6296 0 1 0 5.735561189803337 58.97354250931086 139.72822300976463 1 0 0
6279 0 1 0 0.6910785905844252 62.72357877866839 139.61523692402548 1 0 0
6289 0 1 0 2.8682481470344943 61.46752161229604 139.64617574185087 1 0 0
6288 0 1 0 3.577286790684816 60.19531565286569 139.67662402014852 1 0 0
6281 0 1 0 2.9053883628875554 63.91844996376216 139.66353535773857 1 0 0
6280 0 1 0 1.4374842902651928 63.95293986758008 139.65557582930205 1 0 0
6290 0 1 0 3.589652044205299 62.677799345043425 139.72297700860057 1 0 0
6278 0 1 0 1.4381509062297906 61.47486311124862 139.6211697913345 1 0 0
6277 0 1 0 0.730958653257611 60.2071600815782 139.54791876772444 1 0 0
6299 0 1 0 5.025271250042688 62.663596374292965 139.7730132246782 1 0 0
6297 0 1 0 5.031671225683445 60.20741793026546 139.72242615314934 1 0 0
6968 0 1 0 7.8777413879719544 60.242715091493416 139.80089924290823 1 0 0
6977 0 1 0 9.341201242514567 60.25285013189057 139.7970414206789 1 0 0
6970 0 1 0 7.9297346345381055 62.65613288589484 139.73395218648025 1 0 0
6249 0 1 0 7.202799120750804 61.47961893833391 139.75123597358723 1 0 0
6979 0 1 0 9.30353171804053 62.69197532389267 139.68525489600407 1 0 0
6298 0 1 0 5.75733862894644 61.430557855561965 139.7020883711588 1 0 0
6241 0 1 0 7.156607527641649 63.87573492306911 139.72923963175757 1 0 0
6300 0 1 0 5.710677738350467 63.86482083849768 139.6994739829496 1 0 0
6333 0 1 0 0.7610398713924355 67.62415742645248 139.352458348972 1 0 0
6345 0 1 0 2.8935963627647636 68.80419737181636 139.33212129173012 1 0 0
6334 0 1 0 1.4383847207530078 68.88154064057237 139.2402616089138 1 0 0
6344 0 1 0 3.625473380798826 67.58770348284963 139.38113202316973 1 0 0
6332 0 1 0 1.4912204806724962 66.3864100946079 139.4242919171503 1 0 0
6343 0 1 0 2.928731513783205 66.35322502434852 139.52422272893074 1 0 0
6342 0 1 0 3.6278195139678773 65.11649750294157 139.6112970883361 1 0 0
6331 0 1 0 0.7242134986550454 65.1804472049072 139.62187019643983 1 0 0
6351 0 1 0 5.0457582016758336 65.1304496251403 139.65112071313908 1 0 0
6353 0 1 0 5.05843965960126 67.54400704108674 139.49773630216035 1 0 0
6303 0 1 0 7.162287455153157 66.32092428055999 139.67126476845087 1 0 0
7022 0 1 0 7.890489391066758 65.09976448437197 139.6418914393494 1 0 0
6352 0 1 0 5.7583194597794405 66.32714119508857 139.63413435100978 1 0 0
7031 0 1 0 9.310672155339029 65.11475056223955 139.59771280920208 1 0 0
7033 0 1 0 9.319048121748303 67.60423127075396 139.7116671866885 1 0 0
7024 0 1 0 7.87759116010101 67.54664459961064 139.6835974059467 1 0 0
6305 0 1 0 7.137925390498633 68.80251581307661 139.63274185108313 1 0 0
6354 0 1 0 5.729137414535526 68.83319473539383 139.53163661033577 1 0 0
6347 0 1 0 2.834739362456449 71.2904305282122 139.40648401630867 1 0 0
6348 0 1 0 3.5776797535092237 72.52096060572686 139.32554102420366 1 0 0
6335 0 1 0 0.7108327983734108 70.13405932033467 139.3056838485879 1 0 0
6337 0 1 0 0.7320931446131833 72.56193079911326 139.20595168800747 1 0 0
6336 0 1 0 1.4533834870195388 71.36292536958524 139.3912740019068 1 0 0
6346 0 1 0 3.574425641523488 70.0680058752986 139.467864621075 1 0 0
6349 0 1 0 2.852305000621045 73.7646832238028 139.23180970844922 1 0 0
6338 0 1 0 1.4336854148905434 73.79978695238182 139.15449647749494 1 0 0
6357 0 1 0 4.966867925853826 72.54746092274871 139.3452185618676 1 0 0
6355 0 1 0 5.001195891874175 70.08336444395027 139.4881259700237 1 0 0
7028 0 1 0 7.847270530778835 72.55180567882216 139.58798712073056 1 0 0
6358 0 1 0 5.688944569470364 73.78186569673022 139.42567547517683 1 0 0
7037 0 1 0 9.287859303703334 72.55697822556053 139.58649248842795 1 0 0
7026 0 1 0 7.874280484340326 70.03674070215813 139.57088330118455 1 0 0
6309 0 1 0 7.1536506536419875 73.77518954609896 139.51602233385734 1 0 0
6356 0 1 0 5.7024295386351325 71.27249052104276 139.3610716307119 1 0 0
6307 0 1 0 7.165904896287632 71.2911361478344 139.46227344936403 1 0 0
7035 0 1 0 9.271043134158932 70.05240304332894 139.50986114745976 1 0 0
6402 0 1 0 3.557426929137841 77.48460039090924 139.0097944649973 1 0 0
6341 0 1 0 2.833048608749212 76.27637656087323 139.0842913944887 1 0 0
6350 0 1 0 3.509909739546564 75.02919510685133 139.22830377613406 1 0 0
6340 0 1 0 1.406239585965053 76.27211924922928 138.9047269473234 1 0 0
6339 0 1 0 0.7284699585815223 75.03742552236132 138.96773064407432 1 0 0
6391 0 1 0 0.7124492904183224 77.54466189534203 138.90896021723728 1 0 0
6411 0 1 0 4.942118087834547 77.46103564322449 139.22728631688227 1 0 0
6359 0 1 0 4.898344296242237 75.03336218110492 139.41044858612324 1 0 0
7091 0 1 0 9.283554930809933 77.53385192039708 139.32258119845574 1 0 0
7082 0 1 0 7.828776287308143 77.49044939686897 139.43297291433294 1 0 0
6301 0 1 0 7.115557007789171 76.24033917821552 139.4746481448029 1 0 0
7039 0 1 0 9.269246631667245 75.05835810888544 139.4523937617179 1 0 0
7030 0 1 0 7.873161279839611 75.04498593286468 139.49175888133144 1 0 0
6360 0 1 0 5.651569742315022 76.21098888159395 139.36975371053606 1 0 0
6392 0 1 0 1.4230278184063698 78.77296717912279 138.86058743739304 1 0 0
6406 0 1 0 3.549311064183363 82.45777486435338 138.99123588732573 1 0 0
6405 0 1 0 2.874496350350335 81.1904913482307 139.0733529143257 1 0 0
6394 0 1 0 1.430718930726687 81.22786924870738 138.91425583196272 1 0 0
6404 0 1 0 3.574040120861923 79.9289161935212 139.04493154241086 1 0 0
6403 0 1 0 2.850393357263847 78.71096605111619 138.89151469243552 1 0 0
6393 0 1 0 0.7243015656460796 80.01462095469576 138.9283765639213 1 0 0
6395 0 1 0 0.7233242496228484 82.4935809792684 138.78374016488462 1 0 0
6363 0 1 0 7.16439093492657 78.7007861662749 139.30488312578905 1 0 0
6415 0 1 0 5.0075312269868775 82.44218621191081 139.06011390562003 1 0 0
6413 0 1 0 5.023459594739275 79.93946598153977 139.1684122897606 1 0 0
7095 0 1 0 9.244413105735472 82.42840108073543 138.87094200156574 1 0 0
7086 0 1 0 7.815006700880969 82.44166451795145 138.9079761686526 1 0 0
6365 0 1 0 7.097377699448735 81.20961668586756 139.1047473970682 1 0 0
7093 0 1 0 9.237101807484331 79.95761290525826 139.06421734913778 1 0 0
6414 0 1 0 5.683391270614011 81.20233895030803 139.1377757834556 1 0 0
7084 0 1 0 7.8039894499153775 79.93306673612926 139.19953931112912 1 0 0
6412 0 1 0 5.728672294317081 78.68314243075687 139.337917010955 1 0 0
6410 0 1 0 3.599212197079916 87.45497271395772 138.80014828232012 1 0 0
6398 0 1 0 1.462345752252608 86.23316558487647 138.68296332010928 1 0 0
6407 0 1 0 2.857080102868134 83.69325311576198 138.9467736293565 1 0 0
6396 0 1 0 1.4136182687736225 83.71981409989202 138.8344446395925 1 0 0
6397 0 1 0 0.696648555190954 84.95986651686565 138.85113147342489 1 0 0
6399 0 1 0 0.6940328799887147 87.46093810196577 138.79053009577711 1 0 0
6409 0 1 0 2.9079333810404204 86.1981941613175 138.76836880051792 1 0 0
6408 0 1 0 3.568677289764238 84.93251334182888 138.85536123275637 1 0 0
6419 0 1 0 5.009550991409431 87.43278971483132 139.02849452607248 1 0 0
6417 0 1 0 4.999682511188237 84.92643602432125 138.95537968699733 1 0 0
7097 0 1 0 9.29205056141997 84.89748924246594 138.88699703001924 1 0 0
7090 0 1 0 7.845176150800582 87.41738298566173 139.0676256193444 1 0 0
6369 0 1 0 7.135999819264497 86.16001883398832 139.04482173739729 1 0 0
7088 0 1 0 7.822126650752027 84.91023887425479 138.86319189539938 1 0 0
6418 0 1 0 5.685767770085462 86.17535917534478 139.03162443271256 1 0 0
6367 0 1 0 7.096127831467613 83.67508150021364 138.91274933766329 1 0 0
6416 0 1 0 5.689022150913864 83.64112052091052 138.93050195832393 1 0 0
7099 0 1 0 9.25320454498463 87.3505820388312 139.04980272784687 1 0 0
6401 0 1 0 2.865240680236048 88.65726553902891 138.74146129589417 1 0 0
6463 0 1 0 2.8927312720606686 91.12661887506842 138.81483662998815 1 0 0
6400 0 1 0 1.4380557942084244 88.69820420781821 138.6985186037469 1 0 0
6452 0 1 0 1.4626767262889282 91.15544435000878 138.78815183456533 1 0 0
6462 0 1 0 3.5876816747138176 89.89529480890268 138.80340453943685 1 0 0
6451 0 1 0 0.7077683562470293 89.93936415239273 138.799672755819 1 0 0
6464 0 1 0 3.6061160257224874 92.33686156907474 138.80451122168634 1 0 0
6453 0 1 0 0.697592589902128 92.37174736092575 138.77431637058297 1 0 0
6471 0 1 0 5.02357367774443 89.93777861080021 138.90182197496475 1 0 0
6361 0 1 0 7.156654932746705 88.6638606536578 139.0659623097711 1 0 0
7142 0 1 0 7.865674299305956 89.91912920635416 139.13930413982135 1 0 0
6472 0 1 0 5.741311675221122 91.1346246618073 139.04903068091946 1 0 0
6420 0 1 0 5.699112753921108 88.66138348565536 138.9708145100714 1 0 0
6473 0 1 0 5.029616694903537 92.38197354195098 138.96653566578564 1 0 0
6423 0 1 0 7.155229654992599 91.13918881336008 139.19971638759264 1 0 0
7144 0 1 0 7.8379452684133355 92.37355484686883 139.34008164928926 1 0 0
7153 0 1 0 9.288250119478496 92.35407201662407 139.38522397096102 1 0 0
7151 0 1 0 9.255240199489918 89.88393749710342 139.1780383973286 1 0 0
6467 0 1 0 2.919082260906342 96.11809772119014 139.06084209739873 1 0 0
6466 0 1 0 3.620702237524918 94.81261153487493 138.96200438764683 1 0 0
6456 0 1 0 1.468952123852673 96.13252938585173 138.92558797445722 1 0 0
6465 0 1 0 2.8942150953241437 93.58180437177266 138.92883212499302 1 0 0
6454 0 1 0 1.4742105926212008 93.64265912353927 138.80695926493937 1 0 0
6455 0 1 0 0.7584868408802641 94.92719589658525 138.7598398141204 1 0 0
6427 0 1 0 7.121036169046427 96.07910624111527 139.4832292159483 1 0 0
6425 0 1 0 7.1441792194779525 93.61179500356232 139.4364484589697 1 0 0
7146 0 1 0 7.852246037023615 94.84303259933834 139.65908461877984 1 0 0
6475 0 1 0 4.98394593740357 94.82698055281686 139.17600938503173 1 0 0
6474 0 1 0 5.731749202591542 93.58967277865642 139.23301746339058 1 0 0
6476 0 1 0 5.721917985583254 96.10156095402313 139.41363038331755 1 0 0
7155 0 1 0 9.239352736415713 94.79166654624903 139.54699839540783 1 0 0
6468 0 1 0 3.612265867582317 97.31316290381233 139.3123250962463 1 0 0
6457 0 1 0 0.7946023610049828 97.45345769868464 139.08458472278403 1 0 0
6458 0 1 0 1.4994841548071163 98.624473869444 139.24364245043267 1 0 0
6461 0 1 0 2.96142464865856 101.04735222541201 139.52952509575834 1 0 0
6470 0 1 0 3.666475754950766 99.81117822692762 139.5262514657311 1 0 0
6460 0 1 0 1.537926498914677 101.03516850425862 139.3862358420807 1 0 0
6469 0 1 0 2.9352403458661347 98.57720467684125 139.41993545330115 1 0 0
6459 0 1 0 0.7563923830332512 99.81514693424566 139.23698407784389 1 0 0
6477 0 1 0 5.021927837939953 97.32335120727305 139.39355874462888 1 0 0
7148 0 1 0 7.867938266287274 97.33066864005977 139.541724090645 1 0 0
6479 0 1 0 5.076342236458363 99.79067794447094 139.64336225870687 1 0 0
6478 0 1 0 5.748667821678836 98.56904336122093 139.5992906855196 1 0 0
7157 0 1 0 9.3003979499486 97.3155731300864 139.62344252320526 1 0 0
7159 0 1 0 9.290923685009592 99.86862958850185 139.85012561993253 1 0 0
6421 0 1 0 7.181922842475812 100.94911801648318 139.92275745326793 1 0 0
7150 0 1 0 7.894238621543404 99.79368516691622 139.77906234902815 1 0 0
6429 0 1 0 7.184704885453638 98.5686846189511 139.65478650077011 1 0 0
6480 0 1 0 5.782058654134747 101.0448470810978 139.85850333536092 1 0 0
5802 0 1 0 3.6177598374694644 102.27679644706438 139.75380474726842 1 -1 0
5792 0 1 0 1.4839436398552923 103.5681221864271 139.53295240133352 1 -1 0
5803 0 1 0 2.9179218325762353 103.53741654663575 139.72176494441902 1 -1 0
5804 0 1 0 3.6256662254792773 104.74821004600751 139.8632893021651 1 -1 0
5794 0 1 0 1.52763930509766 105.99843931506012 139.71859062775914 1 -1 0
5805 0 1 0 2.9499210015069908 106.01520036095143 139.7720801892046 1 -1 0
5793 0 1 0 0.7896883130967178 104.78479830311672 139.61009231126306 1 -1 0
5791 0 1 0 0.8075511626756182 102.33119928911786 139.4053853727116 1 -1 0
5813 0 1 0 5.0441469068911005 104.75003488863189 139.86989254641074 1 -1 0
5811 0 1 0 5.060120013887164 102.26144465992607 139.8824949417953 1 -1 0
6493 0 1 0 9.281064679159556 104.78374616915994 140.22100570758616 1 -1 0
6491 0 1 0 9.288727372462615 102.30561030812432 140.18133916567294 1 -1 0
6482 0 1 0 7.831601462039124 102.2075668836617 140.09552595671934 1 -1 0
6484 0 1 0 7.884335796335158 104.70912587727378 140.08733544666146 1 -1 0
5812 0 1 0 5.759818404043693 103.50711778620466 139.87004839174938 1 -1 0
5763 0 1 0 7.188358023047344 103.49074763489995 139.96781919542147 1 -1 0
5765 0 1 0 7.2004665855427845 105.98816532816271 140.0404663385259 1 -1 0
5814 0 1 0 5.742331653404752 105.9964992646526 139.94936746887674 1 -1 0
5796 0 1 0 1.5241876668764769 108.45109441424191 139.71219909701017 1 -1 0
5797 0 1 0 0.7739402703872655 109.70072487865538 139.71364918880252 1 -1 0
5795 0 1 0 0.7725465087682917 107.23162975920503 139.67748397388795 1 -1 0
5808 0 1 0 3.5888694587736705 109.70490878656541 139.83397527983433 1 -1 0
5807 0 1 0 2.932693205960547 108.49150891169053 139.853890933809 1 -1 0
5806 0 1 0 3.6080020331397225 107.24028879024054 139.92686171444564 1 -1 0
5798 0 1 0 1.4718088905642173 110.9465375595513 139.85399574769858 1 -1 0
5809 0 1 0 2.9223879436821827 110.98470575535336 139.75087593660942 1 -1 0
5815 0 1 0 5.066001938725188 107.25425975802489 139.9799311642338 1 -1 0
5817 0 1 0 5.053668686970654 109.68718621657148 139.92725667858966 1 -1 0
5816 0 1 0 5.77240329718403 108.49231374896829 139.986002018898 1 -1 0
6495 0 1 0 9.334557731283304 107.24855961134337 140.1176292856212 1 -1 0
6486 0 1 0 7.9352349694587545 107.23634386333983 140.11104431865132 1 -1 0
5767 0 1 0 7.210345310866904 108.46476803256351 139.97999941015254 1 -1 0
6488 0 1 0 7.9496430702728 109.7385479194173 139.87588178787553 1 -1 0
6497 0 1 0 9.333069976093642 109.67546001709403 139.70550180090663 1 -1 0
5818 0 1 0 5.785652049310637 110.93795491667866 139.88367520823212 1 -1 0
5769 0 1 0 7.217797081739451 111.002122178431 139.81502583388348 1 -1 0
5810 0 1 0 3.645364817587457 112.20962932900854 139.7229921493547 1 -1 0
5862 0 1 0 3.694590952053873 114.71939977447359 139.97263456198473 1 -1 0
5801 0 1 0 2.9451774964599724 113.41304556252109 139.83545683247127 1 -1 0
5800 0 1 0 1.5407359827516212 113.44019045811537 139.8409118775763 1 -1 0
5799 0 1 0 0.7766171400589162 112.21546792425718 139.91112434470995 1 -1 0
5851 0 1 0 0.8088115315998637 114.65094880007977 139.88074877923825 1 -1 0