LAMMPS (4 Feb 2025)
OMP_NUM_THREADS environment is not set. Defaulting to 1 thread. (src/comm.cpp:99)
  using 1 OpenMP thread(s) per MPI task
# LAMMPS script for running NVT simulation

units       metal
dimension   3
boundary    p p p
atom_style  full
atom_modify map yes

newton      on

read_data   ../start.lammps-data
Reading data file ...
  orthogonal box = (0 0 0) to (153.931 148.12017 151.07317)
  16 by 8 by 8 MPI processor grid
  reading atoms ...
  11640 atoms
  reading velocities ...
  11640 velocities
Finding 1-2 1-3 1-4 neighbors ...
  special bond factors lj:    0        0        0       
  special bond factors coul:  0        0        0       
     0 = max # of 1-2 neighbors
     0 = max # of 1-3 neighbors
     0 = max # of 1-4 neighbors
     1 = max # of special neighbors
  special bonds CPU = 5.960 seconds
  read_data CPU = 6.158 seconds

pair_style  symmetrix/mace
pair_coeff  * * ../../../00-common/models/ch2o-dens-inv_swa-1-6-8.json C H O
Loading MACE model from '../../../00-common/models/ch2o-dens-inv_swa-1-6-8.json' ... success
  mapping LAMMPS type 1 (C) to MACE type 1
  mapping LAMMPS type 2 (H) to MACE type 0
  mapping LAMMPS type 3 (O) to MACE type 2

variable t equal step

group graphene type 1
8640 atoms in group graphene
group H2O type 2 3
3000 atoms in group H2O

thermo 1000

######### NVT equilibration for 80 ps #############

dump DUMP1 all atom 100 nvt_equi.lammpstrj
timestep 0.001
fix NVT1 graphene nvt temp 300 300 0.1
fix NVT2 H2O nvt temp 300 300 0.1
run 80000
Neighbor list info ...
  update: every = 1 steps, delay = 0 steps, check = yes
  max neighbors/atom: 2000, page size: 100000
  master list distance cutoff = 8
  ghost atom cutoff = 8
  binsize = 4, bins = 39 38 38
  1 neighbor lists, perpetual/occasional/extra = 1 0 0
  (1) pair symmetrix/mace, perpetual
      attributes: full, newton on
      pair build: full/bin
      stencil: full/bin/3d
      bin: standard
Per MPI rank memory allocation (min/avg/max) = 5.921 | 6.239 | 8.658 Mbytes
   Step          Temp          E_pair         E_mol          TotEng         Press     
         0   78.173347     -1810215.1      0             -1810097.5      371.34402    
      1000   84.043783     -1810208.6      0             -1810082.1      231.53695    
      2000   174.75389     -1810103.8      0             -1809840.9     -745.49596    
      3000   304.52548     -1809974        0             -1809515.9     -1094.5886    
      4000   298.55039     -1809940.4      0             -1809491.3     -1224.3902    
      5000   301.53895     -1809944.2      0             -1809490.5     -1009.366     
      6000   297.43627     -1809936.2      0             -1809488.7     -1057.776     
      7000   291.06197     -1809947.7      0             -1809509.8     -875.97703    
      8000   297.83404     -1809932.7      0             -1809484.6     -932.15303    
      9000   302.66204     -1809922.8      0             -1809467.4     -907.47703    
     10000   301.78874     -1809947.6      0             -1809493.6     -811.13529    
     11000   300.44869     -1809947.2      0             -1809495.2     -824.58528    
     12000   306.84362     -1809932.9      0             -1809471.3     -845.14792    
     13000   305.02686     -1809925.7      0             -1809466.8     -746.19977    
     14000   299.55244     -1809941.6      0             -1809490.9     -594.52959    
     15000   297.24983     -1809941.3      0             -1809494.1     -603.7866     
     16000   303.83146     -1809936.1      0             -1809479       -589.16027    
     17000   299.53299     -1809933.1      0             -1809482.4     -520.52561    
     18000   300.27307     -1809934.1      0             -1809482.4     -442.54922    
     19000   304.935       -1809923.7      0             -1809465       -420.73584    
     20000   301.73843     -1809934.5      0             -1809480.5     -395.2408     
     21000   291.03767     -1809930.3      0             -1809492.4     -421.79363    
     22000   300.64496     -1809936.1      0             -1809483.8     -383.19242    
     23000   302.49301     -1809929.3      0             -1809474.2     -433.63294    
     24000   296.71554     -1809938.6      0             -1809492.2     -405.94441    
     25000   301.80508     -1809928.2      0             -1809474.1     -251.72102    
     26000   302.78554     -1809942.2      0             -1809486.7     -198.96712    
     27000   296.64592     -1809940        0             -1809493.7     -205.41288    
     28000   304.28319     -1809929.4      0             -1809471.6     -359.41277    
     29000   299.42581     -1809931        0             -1809480.5     -243.30993    
     30000   298.30889     -1809933.5      0             -1809484.7     -188.13179    
     31000   299.30984     -1809931.3      0             -1809481       -178.23309    
     32000   300.43866     -1809935.1      0             -1809483.1     -132.37207    
     33000   296.66517     -1809932        0             -1809485.7     -168.54561    
     34000   299.07264     -1809934.5      0             -1809484.6     -202.66838    
     35000   300.71692     -1809928.6      0             -1809476.2     -188.15213    
     36000   298.84016     -1809938        0             -1809488.4     -86.732541    
     37000   298.57657     -1809934.2      0             -1809485       -184.55991    
     38000   298.12219     -1809939.4      0             -1809490.9     -83.282046    
     39000   296.00385     -1809934.4      0             -1809489       -118.17621    
     40000   304.88444     -1809939        0             -1809480.3     -31.03583     
     41000   296.17008     -1809930.9      0             -1809485.4     -17.697645    
     42000   300.93083     -1809934.4      0             -1809481.7     -16.591289    
     43000   301.99478     -1809930.7      0             -1809476.4     -69.537952    
     44000   295.30268     -1809934.2      0             -1809489.9     -121.79691    
     45000   297.32091     -1809935.8      0             -1809488.5     -137.76128    
     46000   301.35943     -1809933.7      0             -1809480.3     -14.100357    
     47000   303.47025     -1809941.3      0             -1809484.7     -17.131017    
     48000   305.51808     -1809945.2      0             -1809485.5      33.2581      
     49000   300.66566     -1809938.6      0             -1809486.3      45.610551    
     50000   300.59422     -1809940.8      0             -1809488.6      17.578024    
     51000   300.46364     -1809939.6      0             -1809487.6     -31.258378    
     52000   301.22449     -1809941.3      0             -1809488.1     -27.017932    
     53000   300.91072     -1809942        0             -1809489.3      9.8259119    
     54000   301.61897     -1809941.4      0             -1809487.6     -24.99014     
     55000   302.52001     -1809935.4      0             -1809480.3      14.544252    
     56000   299.69866     -1809938.2      0             -1809487.3     -22.170291    
     57000   300.35827     -1809936.7      0             -1809484.9     -61.909756    
     58000   299.26424     -1809931.2      0             -1809481       -27.549832    
     59000   298.93414     -1809943.5      0             -1809493.7      8.099522     
     60000   300.68099     -1809945.9      0             -1809493.5      34.050883    
     61000   298.80735     -1809940.7      0             -1809491.1      55.267891    
     62000   300.69162     -1809940.3      0             -1809488        13.241777    
     63000   299.52852     -1809936.6      0             -1809486        60.296332    
     64000   303.4111      -1809937.6      0             -1809481.1      38.211098    
     65000   299.17284     -1809936        0             -1809485.9      4.4270491    
     66000   296.84051     -1809937.7      0             -1809491.1      2.0986534    
     67000   298.28737     -1809943.2      0             -1809494.5      11.549604    
     68000   298.00414     -1809938.2      0             -1809489.8     -31.01941     
     69000   303.51057     -1809936        0             -1809479.4     -3.9209489    
     70000   298.68712     -1809940.9      0             -1809491.5      38.13547     
     71000   300.15334     -1809935.9      0             -1809484.4      22.963246    
     72000   301.26268     -1809930.3      0             -1809477.1      57.37351     
     73000   299.13149     -1809944.1      0             -1809494        106.26403    
     74000   300.31        -1809940        0             -1809488.2      64.576298    
     75000   301.15105     -1809932.8      0             -1809479.7      41.036096    
     76000   298.20978     -1809936.8      0             -1809488.1      38.171159    
     77000   300.21348     -1809931.7      0             -1809480        17.950265    
     78000   300.82188     -1809938.6      0             -1809486        13.800799    
     79000   299.78523     -1809945.5      0             -1809494.5     -10.455215    
     80000   300.35624     -1809937.7      0             -1809485.8     -65.004002    
Loop time of 58801.4 on 1024 procs for 80000 steps with 11640 atoms

Performance: 0.118 ns/day, 204.171 hours/ns, 1.361 timesteps/s, 15.836 katom-step/s
100.0% CPU use with 1024 MPI tasks x 1 OpenMP threads

MPI task timing breakdown:
Section |  min time  |  avg time  |  max time  |%varavg| %total
---------------------------------------------------------------
Pair    | 1167.9     | 5595.2     | 26798      |6698.9 |  9.52
Bond    | 0.0048864  | 0.0078111  | 0.020351   |   2.2 |  0.00
Neigh   | 0.053106   | 0.13955    | 1.2629     |  44.7 |  0.00
Comm    | 24.562     | 2042.2     | 7615.8     |3790.4 |  3.47
Output  | 0.60824    | 4.8089     | 9.8181     | 127.2 |  0.01
Modify  | 27619      | 51152      | 57550      |2749.0 | 86.99
Other   |            | 7.365      |            |       |  0.01

Nlocal:        11.3672 ave         308 max           0 min
Histogram: 890 2 115 4 0 1 3 1 4 4
Nghost:        87.4814 ave        1503 max           0 min
Histogram: 781 131 80 13 6 5 2 2 3 1
Neighs:              0 ave           0 max           0 min
Histogram: 1024 0 0 0 0 0 0 0 0 0
FullNghs:       1219.8 ave       58295 max           0 min
Histogram: 997 10 4 0 3 1 2 1 2 4

Total # of neighbors = 1249074
Ave neighs/atom = 107.30876
Ave special neighs/atom = 0
Neighbor list builds = 3761
Dangerous builds = 0

write_restart nvt_equi.restart.*
System init for write_restart ...
write_data nvt_equi_final.lammps-data
System init for write_data ...

Total wall time: 16:20:26
