LAMMPS (4 Feb 2025)
OMP_NUM_THREADS environment is not set. Defaulting to 1 thread. (src/comm.cpp:99)
  using 1 OpenMP thread(s) per MPI task
# LAMMPS script for continuing NVT simulation

atom_modify map yes
newton      on

read_restart nvt_prod.restart.1120000
Reading restart file ...
  restart file = 4 Feb 2025, LAMMPS = 4 Feb 2025
  restoring atom style full from restart
  orthogonal box = (0 0 0) to (154.008 148.2 151.07609)
  16 by 8 by 13 MPI processor grid
  pair style symmetrix/mace stores no restart info
  22680 atoms
Finding 1-2 1-3 1-4 neighbors ...
  special bond factors lj:    0        0        0       
  special bond factors coul:  0        0        0       
     0 = max # of 1-2 neighbors
     0 = max # of 1-3 neighbors
     0 = max # of 1-4 neighbors
     1 = max # of special neighbors
  special bonds CPU = 4.958 seconds
  read_restart CPU = 5.199 seconds

pair_style  symmetrix/mace
pair_coeff  * * ../../../../00-common/models/ch2o-dens-inv_swa-1-6-8.json C H O
Loading MACE model from '../../../../00-common/models/ch2o-dens-inv_swa-1-6-8.json' ... success
  mapping LAMMPS type 1 (C) to MACE type 1
  mapping LAMMPS type 2 (H) to MACE type 0
  mapping LAMMPS type 3 (O) to MACE type 2

group graphene type 1
8640 atoms in group graphene
group H2O type 2 3
14040 atoms in group H2O

thermo 1000

######### NVT production for 80 ps #############

dump DUMP1 all atom 100 nvt_prod_14.lammpstrj
timestep 0.001
fix NVT1 graphene nvt temp 300 300 0.1
Resetting global fix info from restart file:
  fix style: nvt, fix ID: NVT1
fix NVT2 H2O nvt temp 300 300 0.1
Resetting global fix info from restart file:
  fix style: nvt, fix ID: NVT2
run 80000
All restart file global fix info was re-assigned
Neighbor list info ...
  update: every = 1 steps, delay = 0 steps, check = yes
  max neighbors/atom: 2000, page size: 100000
  master list distance cutoff = 8
  ghost atom cutoff = 8
  binsize = 4, bins = 39 38 38
  1 neighbor lists, perpetual/occasional/extra = 1 0 0
  (1) pair symmetrix/mace, perpetual
      attributes: full, newton on
      pair build: full/bin
      stencil: full/bin/3d
      bin: standard
Per MPI rank memory allocation (min/avg/max) = 5.965 | 6.244 | 8.236 Mbytes
   Step          Temp          E_pair         E_mol          TotEng         Press     
   1120000   300.74128     -3538226.5      0             -3537344.9      13.804339    
   1121000   296.14668     -3538212.4      0             -3537344.3     -80.984334    
   1122000   296.88068     -3538222.1      0             -3537351.8     -42.196454    
   1123000   301.11033     -3538214.5      0             -3537331.8     -25.652351    
   1124000   298.54752     -3538223.6      0             -3537348.4     -45.804383    
   1125000   302.63304     -3538216.1      0             -3537328.9     -31.40846     
   1126000   296.94331     -3538226.6      0             -3537356.1     -50.706217    
   1127000   302.58137     -3538208.5      0             -3537321.5     -90.199573    
   1128000   299.82924     -3538220.1      0             -3537341.2     -62.468835    
   1129000   299.03019     -3538215.2      0             -3537338.6     -57.001369    
   1130000   298.74308     -3538219.4      0             -3537343.7     -46.529259    
   1131000   297.20137     -3538214.3      0             -3537343.1     -78.818555    
   1132000   301.91598     -3538212.8      0             -3537327.8     -23.878087    
   1133000   302.7784      -3538212        0             -3537324.4     -12.503873    
   1134000   301.50785     -3538228.6      0             -3537344.8     -45.256871    
   1135000   299.47439     -3538211.2      0             -3537333.3     -41.274778    
   1136000   299.89569     -3538220.9      0             -3537341.8     -28.607878    
   1137000   299.21837     -3538214.1      0             -3537337       -38.139932    
   1138000   301.25941     -3538208.5      0             -3537325.4      25.71765     
   1139000   300.66693     -3538226        0             -3537344.6      8.6335767    
   1140000   300.65783     -3538222.1      0             -3537340.7     -16.724321    
   1141000   301.78474     -3538217.2      0             -3537332.5     -70.400954    
   1142000   298.20487     -3538221.5      0             -3537347.3     -69.055007    
   1143000   301.57745     -3538215        0             -3537330.9     -40.920537    
   1144000   300.85061     -3538213.6      0             -3537331.6     -24.516132    
   1145000   299.63533     -3538217.4      0             -3537339       -38.561915    
   1146000   298.65793     -3538224.5      0             -3537349       -2.6005379    
   1147000   299.66265     -3538215.3      0             -3537336.9      15.371572    
   1148000   298.54477     -3538220.1      0             -3537344.9     -36.70715     
   1149000   301.28592     -3538214.3      0             -3537331.1     -46.41405     
   1150000   301.26723     -3538218.1      0             -3537334.9     -50.954169    
   1151000   301.31259     -3538222.3      0             -3537339       -36.336956    
   1152000   300.78147     -3538207.2      0             -3537325.5     -33.270069    
   1153000   298.06484     -3538210.9      0             -3537337.1     -14.610114    
   1154000   298.43991     -3538220.2      0             -3537345.4     -40.478381    
   1155000   299.60786     -3538215.4      0             -3537337.1     -94.597351    
   1156000   299.14526     -3538226.3      0             -3537349.3     -78.504135    
   1157000   301.74158     -3538223.1      0             -3537338.6     -67.208112    
   1158000   300.63132     -3538211.3      0             -3537330       -18.588822    
   1159000   297.43857     -3538211.3      0             -3537339.4     -98.449223    
   1160000   297.97248     -3538215.1      0             -3537341.6     -32.771457    
   1161000   299.80915     -3538208.2      0             -3537329.3     -95.666849    
   1162000   296.24369     -3538222.9      0             -3537354.5     -4.3684537    
   1163000   301.66067     -3538235.5      0             -3537351.2      59.165367    
   1164000   300.02212     -3538216        0             -3537336.5      12.897726    
   1165000   296.14585     -3538215.8      0             -3537347.6     -21.455815    
   1166000   297.86023     -3538211.6      0             -3537338.4     -34.8053      
   1167000   299.54189     -3538219        0             -3537340.9     -22.837055    
   1168000   299.24263     -3538216.3      0             -3537339.1     -39.296987    
   1169000   300.57256     -3538217.1      0             -3537336       -12.062441    
   1170000   302.11258     -3538209.5      0             -3537323.9     -51.003114    
   1171000   298.7423      -3538220.4      0             -3537344.7     -22.856397    
   1172000   300.53892     -3538215        0             -3537334       -97.353132    
   1173000   297.69203     -3538220.8      0             -3537348.1     -38.005101    
   1174000   297.45877     -3538218.7      0             -3537346.7     -42.700752    
   1175000   300.5679      -3538212.2      0             -3537331.1     -62.895385    
   1176000   299.2614      -3538227.9      0             -3537350.6     -20.391338    
   1177000   299.66691     -3538217.4      0             -3537338.9     -85.053805    
   1178000   299.12646     -3538227.4      0             -3537350.6     -24.144765    
   1179000   299.61757     -3538215.7      0             -3537337.3     -3.9157919    
   1180000   298.29553     -3538226.6      0             -3537352.1     -7.4423964    
   1181000   300.29357     -3538228.1      0             -3537347.8     -37.325727    
   1182000   301.14649     -3538223.2      0             -3537340.4     -59.503785    
   1183000   299.09702     -3538213.6      0             -3537336.8     -81.88701     
   1184000   299.82948     -3538220        0             -3537341.1     -82.018333    
   1185000   299.46637     -3538217.6      0             -3537339.8     -8.8019246    
   1186000   298.86689     -3538210.2      0             -3537334.1     -40.944149    
   1187000   298.54187     -3538214        0             -3537338.9     -29.934718    
   1188000   301.13037     -3538226.3      0             -3537343.6      9.1598106    
   1189000   301.66177     -3538216.8      0             -3537332.5     -32.840266    
   1190000   301.24179     -3538209.7      0             -3537326.6     -59.788117    
   1191000   301.12571     -3538223.1      0             -3537340.4     -63.123538    
   1192000   300.69552     -3538207.8      0             -3537326.3      3.3990046    
   1193000   299.34195     -3538213.3      0             -3537335.8     -33.596216    
   1194000   302.22227     -3538214.6      0             -3537328.6     -2.3001742    
   1195000   299.33572     -3538214.6      0             -3537337.1      8.4513589    
   1196000   301.37017     -3538206        0             -3537322.5      19.471928    
   1197000   296.91126     -3538222.4      0             -3537352       -18.244165    
   1198000   298.92218     -3538211        0             -3537334.7     -97.64997     
   1199000   301.44685     -3538209.6      0             -3537325.9     -45.628193    
   1200000   298.95716     -3538210.7      0             -3537334.3     -53.14601     
Loop time of 47929.8 on 1664 procs for 80000 steps with 22680 atoms

Performance: 0.144 ns/day, 166.423 hours/ns, 1.669 timesteps/s, 37.855 katom-step/s
100.0% CPU use with 1664 MPI tasks x 1 OpenMP threads

MPI task timing breakdown:
Section |  min time  |  avg time  |  max time  |%varavg| %total
---------------------------------------------------------------
Pair    | 0.12979    | 6770.8     | 46622      |15808.0 | 14.13
Bond    | 0.0031924  | 0.0074166  | 0.064457   |   8.1 |  0.00
Neigh   | 0.013294   | 0.25522    | 5.0336     | 157.6 |  0.00
Comm    | 0.60145    | 1861.6     | 20578      |9359.8 |  3.88
Output  | 1.086      | 7.2248     | 14.124     | 144.8 |  0.02
Modify  | 281.56     | 39280      | 47912      |8106.8 | 81.95
Other   |            | 9.607      |            |       |  0.02

Nlocal:        13.6298 ave         227 max           0 min
Histogram: 1442 19 112 14 10 8 8 5 27 19
Nghost:        138.681 ave        2194 max           0 min
Histogram: 1322 176 45 35 31 16 7 12 14 6
Neighs:              0 ave           0 max           0 min
Histogram: 1664 0 0 0 0 0 0 0 0 0
FullNghs:      2089.01 ave       48237 max           0 min
Histogram: 1456 104 34 6 7 8 7 9 20 13

Total # of neighbors = 3476114
Ave neighs/atom = 153.26781
Ave special neighs/atom = 0
Neighbor list builds = 4248
Dangerous builds = 0

write_restart nvt_prod.restart.*
System init for write_restart ...
write_data nvt_prod_final.lammps-data
System init for write_data ...

Total wall time: 13:19:28
