LAMMPS data file via write_data, version 4 Feb 2025, timestep = 1200000, units = metal

22680 atoms
3 atom types

0 154.00799999999998 xlo xhi
0 148.2 ylo yhi
0 151.07609208607428 zlo zhi

Masses

1 12.01099999691024
2 1.007999999740698
3 15.99899999588435

Atoms # full

6053 0 1 0 0.6139629399315746 3.0306668951215814 46.37659174073921 1 0 0
6722 0 1 0 3.5117645402730853 0.5749405533365579 46.43502161386334 1 0 0
6051 0 1 0 0.6493309824748814 0.5466451265819091 46.338816875286646 1 0 0
6052 0 1 0 1.3307239237550135 1.8233204281452926 46.39919533684995 1 0 0
6003 0 1 0 2.7506330033298183 1.8356929146733036 46.425595454664894 1 0 0
6054 0 1 0 1.3444047020662095 4.251668286447294 46.47727250879809 1 0 0
22021 0 3 0 4.200583262844008 4.611111878876718 49.70949520088766 1 0 0
18892 0 3 0 2.182282997355407 2.405326628226186 49.59150201706955 1 0 0
22022 0 2 0 4.099181785689391 4.625853814377996 50.68031329990844 1 0 0
22023 0 2 0 3.526845960519356 3.893672401324925 49.54042294341415 1 0 0
18894 0 2 0 2.15566166561727 2.1199223842166814 50.484599890900675 1 0 0
18893 0 2 0 2.6159199406380234 1.6399323177849245 49.13981384387958 1 0 0
15822 0 2 0 5.890653338427641 3.380737149423965 49.36772175851863 1 0 0
6065 0 1 0 2.793618028756156 16.54996711915141 46.76117797516995 1 0 0
16886 0 2 0 0.08827560171202536 16.96968363592827 54.0891706879703 1 0 0
15820 0 3 0 6.663296324357416 2.909832881261407 49.44538177295079 1 0 0
15821 0 2 0 7.424204274184568 3.495393705789349 49.58398285890229 1 0 0
6742 0 1 0 7.800253628284814 0.5192940683631602 46.83430284482601 1 0 0
6751 0 1 0 9.225003370492297 0.5353164472116532 46.940098924711364 1 0 0
6753 0 1 0 9.239003894206201 3.0126596963894006 46.79296651599914 1 0 0
18349 0 3 0 6.321317599665671 1.1328706433050197 51.3722638376086 1 0 0
18350 0 2 0 6.386066310147299 1.787381316515023 50.624422590299275 1 0 0
6732 0 1 0 5.692407758054777 1.7543873943324588 46.596202276387764 1 0 0
6744 0 1 0 7.7835975516162375 3.0471403012980716 46.62171138287413 1 0 0
6743 0 1 0 7.109710579072887 1.7799012965674952 46.63164184290564 1 0 0
18351 0 2 0 6.922904308639837 0.34983155764444646 51.14258101294455 1 0 0
6745 0 1 0 7.110618818242505 4.229322633412972 46.72277989881126 1 0 0
20831 0 2 0 4.821008082734377 0.338366999194734 50.835392165774095 1 0 0
6747 0 1 0 7.053444019617112 6.652878563412109 46.678504861678604 1 0 0
9272 0 2 0 0.46798360424528246 7.234693288140083 49.48570186766577 4 -10 0
21854 0 2 0 3.2019549876577433 6.436916422720782 49.72006377448989 1 0 0
21853 0 3 0 2.9553167354819854 7.364723494071407 49.954969625497064 1 0 0
17908 0 3 0 2.111559319835798 9.993432111606216 54.450988081000915 1 0 0
17909 0 2 0 2.8844802355516665 9.494855707575699 54.81661622898007 1 0 0
21855 0 2 0 2.3357324179961485 7.2924014725927515 50.672193503139844 1 0 0
19190 0 2 0 7.137686387133158 7.737468361356516 50.29694739175114 1 0 0
17910 0 2 0 1.857179663101711 9.381499811629672 53.76606475565983 1 0 0
19650 0 2 0 3.2868815837938974 9.635745570469657 49.84648913767323 1 0 0
22462 0 3 0 8.471683268348587 4.843767890599608 50.21074586847134 1 0 0
22463 0 2 0 8.088123960998463 4.969472851207651 51.08769852618539 1 0 0
19191 0 2 0 7.454604369964374 7.63217555138444 48.84065850904028 1 0 0
19189 0 3 0 7.892878037941176 7.524386010203024 49.66660334019021 1 0 0
6755 0 1 0 9.237350135649022 5.455812480788195 46.7576692558774 1 0 0
6757 0 1 0 9.198965868757362 7.926295694031662 46.68164029995879 1 0 0
6005 0 1 0 2.7992329184279963 4.271463515245397 46.64495129082408 1 0 0
22464 0 2 0 8.415944929529743 5.7463060817395295 49.82321928667806 1 0 0
19836 0 2 0 5.195585962009659 8.62622501824874 51.54646129893139 1 0 0
19835 0 2 0 4.629766161341353 7.48731165838585 50.826794280279245 1 0 0
13315 0 3 0 1.5998381456926039 6.939735983808293 52.39450768233133 1 0 0
18657 0 2 0 3.2792248144346483 18.397473737975194 56.9728723291111 1 0 0
11425 0 3 0 2.5878078339963277 14.916296430620351 52.74858900334458 1 0 0
6746 0 1 0 7.803710333653278 5.425055302742504 46.69947832912265 1 0 0
6741 0 1 0 6.997999497877588 11.633151774493376 46.9920841408655 1 0 0
6784 0 1 0 3.4812251830901126 15.331467021317488 46.96751354040831 1 0 0
17994 0 2 0 0.3819756323152889 3.4361430406440534 48.94332223621452 1 0 0
13317 0 2 0 0.994546513114795 6.462221088382041 51.76928436523406 1 0 0
6059 0 1 0 0.6183961788816577 10.404265833961082 46.654370231002 1 0 0
18655 0 3 0 2.9587915335071204 17.934104195717175 56.14482243140644 1 0 0
13815 0 2 0 0.9252190798914571 9.67523277128082 50.32622604566553 1 0 0
17655 0 2 0 0.8973336645189589 12.551531074983169 54.96730766671098 1 0 0
17654 0 2 0 2.2938390708011145 12.01039409968694 55.231959064877095 1 0 0
18226 0 3 0 3.663966450027348 13.093474854530877 50.40111789096376 1 0 0
18228 0 2 0 3.603685998963432 13.747908372273683 49.69464690996503 1 0 0
19648 0 3 0 2.8489477419555502 10.237361301672252 50.52081567694201 1 0 0
17653 0 3 0 1.7561728423243141 12.826486731326986 55.32541693230421 1 0 0
19649 0 2 0 3.0263383898715484 11.181617612754893 50.26922636114061 1 0 0
18227 0 2 0 3.4107824145046166 13.57321773341771 51.22896139270751 1 0 0
6811 0 1 0 9.182712585995898 12.887241236955392 46.8372386063312 1 0 0
6802 0 1 0 7.744227797387078 12.869020227190317 46.985350850047055 1 0 0
6750 0 1 0 7.733068714182188 10.413758340481508 46.99991179322899 1 0 0
13316 0 2 0 2.2412094761899484 6.150639719242667 52.59296112208076 1 0 0
6759 0 1 0 9.158192446102442 10.405065870103458 46.7845082596996 1 0 0
17050 0 3 0 2.6232419340403235 15.407437535701451 56.94709637873403 1 0 0
17051 0 2 0 1.6951383214298394 15.349837970112617 57.29883807622817 1 0 0
6731 0 1 0 4.926219773353357 0.5282939430623935 46.60561533343387 1 0 0
22271 0 2 0 2.5125479676159386 0.4645266728671756 52.8918810717252 1 0 0
10793 0 2 0 3.01187640768932 16.722219270589775 49.93889099529209 1 0 0
10792 0 3 0 2.4169620033899526 15.900595677138872 49.82789624440105 1 0 0
15248 0 2 0 1.4613170745956972 12.988663323698773 50.07169154210215 1 0 0
10794 0 2 0 2.4067980443404076 15.476388458240958 50.80111397874521 1 0 0
22459 0 3 0 4.318103197915324 16.84180321223527 53.80125124672977 1 0 0
6786 0 1 0 3.5266171282581324 17.809094959051468 46.70111214181127 1 0 0
19824 0 2 0 0.7199307453303233 16.119822675871298 49.53876302054254 1 0 0
17420 0 2 0 0.626026637730035 6.0446429748306985 55.74403351889286 1 0 0
6794 0 1 0 5.6287458576033575 16.587206609533343 47.15286336325872 1 0 0
6804 0 1 0 7.783831104236918 15.35315233297389 47.051713113158556 1 0 0
6782 0 1 0 3.4762826274593817 12.82454251994279 47.033735453988506 1 0 0
6815 0 1 0 9.229409446452975 17.73723509506428 47.05360237777833 1 0 0
6805 0 1 0 7.043705533829392 16.597695032675016 47.12265049974871 1 0 0
6806 0 1 0 7.803366169473929 17.838231264315755 47.056967872206904 1 0 0
6803 0 1 0 7.054595968414063 14.13286064965519 47.04723990965044 1 0 0
6813 0 1 0 9.244377644019874 15.318763782542064 46.934767567633386 1 0 0
22461 0 2 0 4.449401513611771 17.54169342598519 53.13738912493084 1 0 0
11427 0 2 0 2.1253748407327926 14.523571546385678 53.50659608239174 1 0 0
6795 0 1 0 4.960462373029736 17.83199335040634 46.84820498311936 1 0 0
6792 0 1 0 5.622350844936609 14.130182345170407 47.095608983870356 1 0 0
15051 0 2 0 0.07126358343374835 3.1471468926593142 53.785384586398614 1 0 0
6793 0 1 0 4.911786022986219 15.318397565042448 47.08415831734038 1 0 0
21887 0 2 0 3.7327371301466234 2.012194460623247 53.333140702551084 1 0 0
18568 0 3 0 3.770475404342888 5.352238699350737 52.60670422841527 1 0 0
15049 0 3 0 0.6603799998204111 2.8968061587744063 54.47581332157632 1 0 0
15050 0 2 0 1.141132626935035 3.610728804796773 54.93485222051552 1 0 0
18569 0 2 0 4.283703924670834 6.0780506095518865 52.98660691448216 1 0 0
22272 0 2 0 1.766476903272921 1.5589525096219257 53.878731999948954 1 0 0
22270 0 3 0 2.480048709722251 0.8626215938872025 53.77326210211003 1 0 0
21888 0 2 0 5.321499756232471 2.120975415265009 53.09936558539332 1 0 0
18570 0 2 0 4.082878231633208 4.470344497534923 52.99112607774781 1 0 0
21886 0 3 0 4.472350870397842 2.6347936433875083 53.29381476324614 1 0 0
19944 0 2 0 2.87731566397147 7.0799899034204055 54.90123687322687 1 0 0
19943 0 2 0 4.358846762314656 7.200075308203612 55.273517135259766 1 0 0
6740 0 1 0 5.633649927999503 11.636054087050189 47.099208007982995 1 0 0
18656 0 2 0 2.7901725703690614 17.0241653508773 56.38681188337958 1 0 0
15247 0 3 0 0.5324304543728939 12.991261970637666 49.81979690472276 1 0 0
22460 0 2 0 3.83922235542865 17.444693640380127 54.52083075156625 1 0 0
17419 0 3 0 1.461480374057969 5.561110352982128 55.72366296004164 1 0 0
17421 0 2 0 1.7349082204192996 5.472699267708328 56.72444938460467 1 0 0
19942 0 3 0 3.6325007472583786 7.720437630519209 54.94372823908614 1 0 0
19834 0 3 0 5.416644792884219 7.645047348358185 51.34160243855268 1 0 0
11426 0 2 0 3.2697957700414015 15.552777273595279 53.061740011465666 1 0 0
6791 0 1 0 4.904638746062119 12.904490716703597 47.225441541406546 1 0 0
17052 0 2 0 2.5377335046897636 14.609396260245889 56.394454866238284 1 0 0
20830 0 3 0 3.8522911792991485 0.0810340093716754 50.74109508226577 1 0 0
6063 0 1 0 2.7914117136249503 14.062427671125672 47.018855657159925 1 0 0
6733 0 1 0 4.948834404335668 2.9736044836023523 46.63509962169115 1 0 0
6734 0 1 0 5.65463821024073 4.182261948425854 46.719653228842354 1 0 0
6060 0 1 0 1.3463705660960346 11.665988450704347 46.71075700787528 1 0 0
21319 0 3 0 0.019567709215272476 0.03914115592215125 51.36757910606339 1 0 0
6749 0 1 0 7.021513738924762 9.137434170539198 46.86796523203174 1 0 0
6730 0 1 0 3.4794962122241255 10.36571179137512 47.025460114253505 1 0 0
6112 0 1 0 1.3659846828181743 14.07136544321217 46.74019978665884 1 0 0
15249 0 2 0 0.2678057930793242 12.059946613337683 49.949200243120345 1 0 0
6111 0 1 0 0.6281692403414763 12.887083387015982 46.59164101285007 1 0 0
6001 0 1 0 2.7365375075916076 11.620408961248371 46.95463108868417 1 0 0
6058 0 1 0 1.333830479258209 9.137057368533672 46.77678932563257 1 0 0
6739 0 1 0 4.940092289245721 10.386915266144323 47.101731455250395 1 0 0
6748 0 1 0 7.779783481285337 7.8646823500972065 46.70387273280115 1 0 0
6009 0 1 0 2.769679229155423 9.109585766564916 46.97158707191419 1 0 0
6113 0 1 0 0.6502407593747265 15.307602913493387 46.68971194513319 1 0 0
6724 0 1 0 3.528797976172092 3.0024687804415198 46.53019617287087 1 0 0
6114 0 1 0 1.3773862433642368 16.501653722340734 46.67487303112615 1 0 0
6726 0 1 0 3.512044300181684 5.5202070109039925 46.65751760020974 1 0 0
22365 0 2 0 0.5163369654953422 9.832551803513303 55.69800752447046 1 0 0
6728 0 1 0 3.503724321411797 7.890690711390142 46.90353535625832 1 0 0
6737 0 1 0 4.937562553280383 7.916874197299473 46.95118603092165 1 0 0
6736 0 1 0 5.646223567253467 6.651388575314057 46.776162847415506 1 0 0
9271 0 3 0 0.03690661607088503 6.560741483154003 50.05778497723559 4 -10 0
6738 0 1 0 5.653354717405223 9.150792026151212 46.98303755396083 1 0 0
16887 0 2 0 0.14611004546563322 15.765880309831337 53.232324358937774 1 0 0
21907 0 3 0 4.206389879174816 18.19202875744711 50.7446526756575 1 0 0
6735 0 1 0 4.925277738017802 5.41745526397362 46.77425877488657 1 0 0
6007 0 1 0 2.75579944083272 6.705502482360578 46.64622148922997 1 0 0
6056 0 1 0 1.3406796366225395 6.671601773068695 46.669929366167786 1 0 0
6115 0 1 0 0.6738354011867055 17.80457249711003 46.644366161268934 1 0 0
6057 0 1 0 0.6407705698203064 7.876769648999403 46.6771820868203 1 0 0
6055 0 1 0 0.6112264362108727 5.471644743906492 46.55036813430487 1 0 0
17888 0 2 0 0.3354890975150358 3.790099763524216 58.56334742889658 1 0 0
22651 0 3 0 0.5495840933465067 5.498073106151135 58.73916396300719 1 0 0
17632 0 3 0 0.5247030129806235 7.383363017334128 60.82061391922907 1 0 0
22472 0 2 0 0.5640485402205544 0.4203777977210234 60.4243982960553 1 0 0
22652 0 2 0 0.8224380882447997 6.111883298912429 59.47868298423649 1 0 0
17633 0 2 0 1.0381238032770586 8.146669267731635 60.69961365779432 1 0 0
6120 0 1 0 1.4131588109466622 23.96956375350418 46.46348828794698 1 0 0
6118 0 1 0 1.41106026967789 21.476629408730442 46.39878048818979 1 0 0
6119 0 1 0 0.7048266506528761 22.74637606882482 46.372270496309994 1 0 0
6069 0 1 0 2.856908612329901 21.46777126469921 46.47681346486235 1 0 0
6788 0 1 0 3.564312711908467 20.24005357509669 46.47725527158452 1 0 0
19293 0 2 0 1.653357929117727 18.56069177689891 54.87873097903548 1 0 0
19292 0 2 0 0.9406327252669902 19.195555142352198 53.72409250209638 1 0 0
21908 0 2 0 4.821258050864333 18.655148388965934 50.20870881472338 1 0 0
22640 0 2 0 1.575666271080374 33.10024802943472 49.81542093721303 1 0 0
15547 0 3 0 1.5473223340694104 31.28476222348997 52.61186023306273 1 0 0
17528 0 2 0 1.3006352187993446 20.025098369726972 50.03848399231631 1 0 0
15094 0 3 0 0.3058011366387772 20.32950328622726 52.35300681707933 1 0 0
22639 0 3 0 0.9390112934538714 32.820454774230555 50.48619353693145 1 0 0
17527 0 3 0 2.0347659880329974 19.41924560583032 49.69842094201077 1 0 0
15096 0 2 0 0.6658409570400169 21.207419457208324 52.180608320990885 1 0 0
19291 0 3 0 0.7245207415843037 18.686860877924268 54.52438220648782 1 0 0
15548 0 2 0 1.6098663548641947 30.384440392198762 52.16485135193502 1 0 0
6796 0 1 0 5.724096281057252 19.018955003719842 46.791257603314236 1 0 0
6809 0 1 0 7.108770485604026 21.49774900259451 46.91201594323556 1 0 0
6810 0 1 0 7.860182712534973 22.633372680660916 47.220999493340024 1 0 0
6819 0 1 0 9.256742126328165 22.652610475981955 47.36617845106513 1 0 0
6808 0 1 0 7.876017738216101 20.304776421327002 46.9358439030395 1 0 0
6817 0 1 0 9.263053696104667 20.19945222141146 47.083911887654686 1 0 0
6798 0 1 0 5.666798611285478 21.510062731037312 46.70011751187618 1 0 0
6799 0 1 0 4.980494829055509 22.72055304102495 46.61731703627809 1 0 0
6807 0 1 0 7.106667431201209 19.055073739403102 46.95173697234037 1 0 0
6797 0 1 0 4.991469563997157 20.23193812604559 46.57544808970291 1 0 0
17529 0 2 0 1.5413081363894694 18.607974665220475 49.57702870560169 1 0 0
21901 0 3 0 0.5176454920830864 22.530714800467276 49.90992562126462 1 0 0
6879 0 1 0 9.260219070448562 34.9437455632798 48.46859082291829 1 0 0
6842 0 1 0 3.5398126020029297 25.146076104856665 46.810325424651076 1 0 0
6844 0 1 0 3.496903212977559 27.658161374620175 47.149572030241266 1 0 0
6061 0 1 0 2.845211068004152 23.931135942226025 46.53216001215011 1 0 0
6123 0 1 0 2.790844802810231 26.32188954843078 46.98045074961135 1 0 0
22641 0 2 0 0.4148345836098599 33.641431816109474 50.82040697260755 1 0 0
21909 0 2 0 3.5628212701507898 18.938190278186106 50.72774377993204 1 0 0
6173 0 1 0 0.6661663528510984 27.716517354332357 46.89371365202582 1 0 0
6172 0 1 0 1.3599818680684916 26.39533946923201 46.83001544834899 1 0 0
21902 0 2 0 0.11581568959701852 22.02175152311818 49.16655247223664 1 0 0
6171 0 1 0 0.6498703326223564 25.203411708138926 46.51864589453362 1 0 0
6067 0 1 0 2.8302082766363768 19.001947644442648 46.589407001781574 1 0 0
6853 0 1 0 4.973951717787566 27.68494309827947 47.22403356641821 1 0 0
6871 0 1 0 9.285659535443601 25.15093842328736 47.49360430067185 1 0 0
6863 0 1 0 7.092880788258835 26.413205340389723 47.248705158784816 1 0 0
6864 0 1 0 7.784124209090965 27.64298457648075 47.48317936625481 1 0 0
6873 0 1 0 9.212216227247055 27.607364936143906 47.712553204621955 1 0 0
6852 0 1 0 5.667687968826327 26.43189033753847 47.107331932789386 1 0 0
6800 0 1 0 5.712739097203809 23.991992282084432 46.8874793546 1 0 0
6862 0 1 0 7.8575212375798476 25.233267717009998 47.27640951537569 1 0 0
6801 0 1 0 7.131559308131322 23.985778040744695 47.164491565117224 1 0 0
6851 0 1 0 4.937550611060671 25.254580496211403 46.899688256631386 1 0 0
6176 0 1 0 1.3875438032184162 31.368120491926547 47.32621938417097 1 0 0
20064 0 2 0 0.6743396046614992 28.40039525554417 50.332054325096415 1 0 0
20063 0 2 0 2.049051481619587 27.79351738121698 50.86310091512483 1 0 0
20062 0 3 0 1.4249504384824605 28.54287141561883 50.93034892182172 1 0 0
6846 0 1 0 3.482497321573253 30.080967237240454 47.53122179797271 1 0 0
6125 0 1 0 2.8186759069228753 28.853001920331135 47.28389049634053 1 0 0
6127 0 1 0 2.785456363609188 31.30707918489817 47.60535307778055 1 0 0
6174 0 1 0 1.366332189649076 28.894132757139992 47.136923705608936 1 0 0
6175 0 1 0 0.6432352650074306 30.153510557353105 47.15182852620266 1 0 0
6855 0 1 0 4.908177154538734 30.09054528353119 47.55753233261739 1 0 0
6875 0 1 0 9.238454421417014 30.05971306535526 48.027514692302525 1 0 0
6865 0 1 0 7.062519325624433 28.88993965861596 47.55686072672599 1 0 0
6866 0 1 0 7.820071293812913 30.07099387370677 47.792512824646664 1 0 0
6856 0 1 0 5.636168385790867 31.31507343190087 47.80861087639571 1 0 0
6867 0 1 0 7.069957897827131 31.29520997491851 47.960709257063975 1 0 0
6854 0 1 0 5.678926417121646 28.91708836838547 47.370552472570445 1 0 0
6177 0 1 0 0.6269898112078851 32.56442011244177 47.23277074873834 1 0 0
15549 0 2 0 1.4333294964833823 31.84237406310752 51.849359455873525 1 0 0
6180 0 1 0 1.3624832422649602 36.31032716109101 47.70131128271167 1 0 0
6848 0 1 0 3.5120677501924114 32.532619361570255 47.79198364083507 1 0 0
6129 0 1 0 2.8009637048183365 33.755480677926386 47.84518589687318 1 0 0
6121 0 1 0 2.79158645920108 36.27840698551526 48.01030698535602 1 0 0
6850 0 1 0 3.4898776398753286 35.01599649717639 48.19506747713526 1 0 0
6178 0 1 0 1.3725459962250097 33.769892025954455 47.551093588205674 1 0 0
6179 0 1 0 0.7269189773282217 35.093013637380416 47.42174539556018 1 0 0
6859 0 1 0 4.903201394790529 35.020804085344345 48.35595337384227 1 0 0
6857 0 1 0 4.978039969651979 32.539234213452076 48.024057831340144 1 0 0
6877 0 1 0 9.204670842399729 32.55382488246857 48.27872018722571 1 0 0
6860 0 1 0 5.578868225390553 36.265348293909945 48.46457464063065 1 0 0
6858 0 1 0 5.643080129704241 33.77184363671512 48.30572135629862 1 0 0
6869 0 1 0 7.112747485011322 33.766435370377216 48.26244845969334 1 0 0
6868 0 1 0 7.751774738539553 32.51415149049521 48.13132561256644 1 0 0
6870 0 1 0 7.819669154736933 35.033582336071724 48.4843427355575 1 0 0
6861 0 1 0 7.036785128318444 36.25628543334101 48.46135532492769 1 0 0
6116 0 1 0 1.3819347708603367 19.024643597349716 46.63288055147776 1 0 0
22476 0 2 0 0.08431734183636763 19.322676478104977 56.031755553339394 1 0 0
6117 0 1 0 0.6631445763006831 20.26512503404443 46.52884111975071 1 0 0
6790 0 1 0 3.5872514869681043 22.713008381564574 46.51057856825235 1 0 0
6904 0 1 0 3.4358133333896554 39.988881351127965 48.285970524549484 1 0 0
6185 0 1 0 2.8024537083642262 41.23048600098093 48.07953914732093 1 0 0
6233 0 1 0 0.6837236368041902 39.97012754457225 47.79424316514786 1 0 0
6183 0 1 0 2.733025567290036 38.74888516420791 48.1357457166131 1 0 0
6234 0 1 0 1.3343679834138724 41.22825072370705 48.01608620750488 1 0 0
6232 0 1 0 1.3594531644322658 38.7712142829258 47.83732998766 1 0 0
6902 0 1 0 3.472059060335083 37.506640855710124 48.20775454239202 1 0 0
6231 0 1 0 0.6639830473410228 37.54625933388844 47.53933586837275 1 0 0
6913 0 1 0 4.85009655855035 39.99275425842755 48.38298494513401 1 0 0
6911 0 1 0 4.857934684799406 37.51062660898542 48.44521152246003 1 0 0
6933 0 1 0 9.181964710561045 39.9359222057066 48.51653499965237 1 0 0
6925 0 1 0 7.078871195322529 41.18421578070641 48.46218310578919 1 0 0
6914 0 1 0 5.626817778716707 41.20304036469448 48.3364302123452 1 0 0
6924 0 1 0 7.7586311179172105 39.970847963424745 48.531133637954134 1 0 0
6922 0 1 0 7.753791928877326 37.495972154409046 48.56495323217621 1 0 0
6923 0 1 0 7.023715816511497 38.717888058855486 48.505256668351024 1 0 0
6912 0 1 0 5.5964929061908055 38.74868417141406 48.418466596975705 1 0 0
6931 0 1 0 9.163085090654281 37.473219537485804 48.63540413547075 1 0 0
6908 0 1 0 3.4914509177975956 44.86237971928444 48.034273030290414 1 0 0
6906 0 1 0 3.5370604929537373 42.414253095741145 48.040347662582825 1 0 0
6187 0 1 0 2.82564874189837 43.62883925533967 48.011861544163814 1 0 0
6236 0 1 0 1.4161197642327557 43.64886687469896 48.03021167554145 1 0 0
6237 0 1 0 0.621227348166303 44.89212539172671 47.97676704894991 1 0 0
6235 0 1 0 0.6230768039761304 42.4097743371894 48.05225897374996 1 0 0
6238 0 1 0 1.3170329094246562 46.151075892458245 48.07493201340329 1 0 0
6189 0 1 0 2.7936919960307676 46.098607553514185 48.03016804127246 1 0 0
6917 0 1 0 4.947983622716117 44.898771569961845 48.053018003638435 1 0 0
6915 0 1 0 4.96444050189072 42.45429315196775 48.14436329619484 1 0 0
6937 0 1 0 9.160771842189616 44.938614493226254 48.217145537985644 1 0 0
6935 0 1 0 9.120671569103308 42.450733411010276 48.413990478639334 1 0 0
6927 0 1 0 7.067389277806103 43.634044760217726 48.1484327499205 1 0 0
6928 0 1 0 7.763788963500483 44.848773043389855 48.127886307813554 1 0 0
6916 0 1 0 5.658881099434934 43.67922243843336 48.04521866271679 1 0 0
6926 0 1 0 7.758779103502185 42.40856816104724 48.35221588229167 1 0 0
6918 0 1 0 5.646944689157623 46.1030970337947 48.09855601517068 1 0 0
6929 0 1 0 7.055038931989846 46.097867198642064 48.08838200470617 1 0 0
6240 0 1 0 1.347259031713557 48.62242352801305 48.38913952788437 1 0 0
6962 0 1 0 3.5096935341549336 49.83200315679072 48.29509971912059 1 0 0
6291 0 1 0 0.6992825386285485 49.869265170761395 48.4796299083358 1 0 0
6910 0 1 0 3.51146167488638 47.38796170051614 48.08618363927374 1 0 0
6181 0 1 0 2.8048828245900337 48.6093224753797 48.236408974332335 1 0 0
6239 0 1 0 0.6308124683076873 47.38330880132812 48.32053905721032 1 0 0
6919 0 1 0 4.954966293080511 47.3603404837709 48.10971540535494 1 0 0
6971 0 1 0 4.918551705301643 49.870929613659406 48.25203821469139 1 0 0
6930 0 1 0 7.7833205873607225 47.36491136745611 48.181646409475285 1 0 0
6939 0 1 0 9.230598987171943 47.38937025370294 48.19962313867352 1 0 0
6921 0 1 0 7.05122123109356 48.56824209141296 48.249091609257135 1 0 0
6920 0 1 0 5.619388707571512 48.581282564369694 48.19101426953065 1 0 0
6982 0 1 0 7.781011630983852 49.83697822207768 48.1223490223625 1 0 0
6991 0 1 0 9.227609601024351 49.817065214081595 48.08489553106481 1 0 0
6245 0 1 0 2.7814704570625675 53.56061823677238 48.294218445911866 1 0 0
6293 0 1 0 0.6551679392219305 52.32301600433721 48.33147687040708 1 0 0
6964 0 1 0 3.509936660975588 52.35609925717817 48.29875925860687 1 0 0
6243 0 1 0 2.8359841187442854 51.13416490609943 48.38735963557589 1 0 0
6966 0 1 0 3.518539077315611 54.789716262549206 48.235301045622315 1 0 0
6295 0 1 0 0.6402962694315204 54.7711305338649 48.16130184326465 1 0 0
6294 0 1 0 1.3551257138777222 53.56593724475032 48.35172738818123 1 0 0
6292 0 1 0 1.4221290334795829 51.10989871347257 48.45450884248138 1 0 0
6973 0 1 0 4.9624493735144295 52.324233712040154 48.25020769737718 1 0 0
6975 0 1 0 4.96218084020252 54.785751053283796 48.181268950449756 1 0 0
6972 0 1 0 5.643537097867841 51.06386962887572 48.23736557763192 1 0 0
6985 0 1 0 7.089664678319575 53.57777219242907 48.09578519871918 1 0 0
6993 0 1 0 9.226412817502268 52.366285484948484 47.99593237404924 1 0 0
6983 0 1 0 7.066985390558244 51.08539276027758 48.1471739919135 1 0 0
6995 0 1 0 9.218600810462979 54.81412944334008 48.317602653232 1 0 0
6974 0 1 0 5.688221633962848 53.5622398722677 48.19314644144407 1 0 0
6986 0 1 0 7.817802499441156 54.831174579840116 48.24255716443264 1 0 0
6984 0 1 0 7.7828385483587335 52.33322112484363 48.053713833886704 1 0 0
6297 0 1 0 0.696290560156832 57.23871116562276 47.99277030383089 1 0 0
6247 0 1 0 2.8454536459492186 55.99445980757311 48.213558514424 1 0 0
6298 0 1 0 1.4263999285858011 58.506901822196376 48.062759300109335 1 0 0
6296 0 1 0 1.398564963958542 55.99492174456972 48.12849675161314 1 0 0
6970 0 1 0 3.6122147345583913 59.76246191731044 48.13990991331404 1 0 0
6249 0 1 0 2.8236924379344286 58.509674171852474 48.1478483037724 1 0 0
6968 0 1 0 3.5534042015177345 57.30551039669975 48.1723788991968 1 0 0
6299 0 1 0 0.6652961530214083 59.735043361522806 48.12373669293688 1 0 0
6979 0 1 0 5.015105783294549 59.791048649744454 48.17340176443263 1 0 0
6977 0 1 0 4.985487204337838 57.321438897272266 48.1707437113049 1 0 0
6997 0 1 0 9.221727559586872 57.27554671415177 48.185394130561264 1 0 0
6978 0 1 0 5.691304813746127 58.56835278873947 48.18780865387604 1 0 0
6988 0 1 0 7.793992079768641 57.3030563124261 48.22606056682836 1 0 0
6989 0 1 0 7.1129955142883095 58.550598143680745 48.293478259372755 1 0 0
6987 0 1 0 7.034645351069049 56.04508098062753 48.2991592128391 1 0 0
6976 0 1 0 5.617161134239973 56.03819586826957 48.23105147445303 1 0 0
6999 0 1 0 9.267574375891773 59.747724951388626 48.211646457977054 1 0 0
6990 0 1 0 7.843166018637239 59.77700165417532 48.237444220154735 1 0 0
6352 0 1 0 1.4750477433808502 63.48221539206931 47.728497441914456 1 0 0
6351 0 1 0 0.7320115575247303 62.22386743406554 47.87475056848813 1 0 0
6303 0 1 0 2.8876837932700097 63.48509086880051 47.64554383542635 1 0 0
7022 0 1 0 3.5478522568393145 62.23435999668328 47.8949829228971 1 0 0
6241 0 1 0 2.86206889307184 60.99728728133964 48.011748172399926 1 0 0
6300 0 1 0 1.4322240748544215 60.956442659066184 48.08711475850937 1 0 0
7024 0 1 0 3.634078040294024 64.70062302525248 47.42848618882926 1 0 0
6353 0 1 0 0.7245222802441876 64.70510884907915 47.45090227668457 1 0 0
7031 0 1 0 4.997423380147311 62.23219934431541 47.834471721271356 1 0 0
7051 0 1 0 9.232870621714213 62.238328967040346 48.097922205003414 1 0 0
7042 0 1 0 7.8359108326259275 62.255069597315 47.92868718733879 1 0 0
7043 0 1 0 7.168190501266164 63.49380247886327 47.76112746528195 1 0 0
6981 0 1 0 7.162660390044443 60.99484072499291 48.074836426344845 1 0 0
6980 0 1 0 5.689087493804635 61.01844328550729 48.099158546947415 1 0 0
7032 0 1 0 5.721244630406812 63.44507140023965 47.64079352643369 1 0 0
7033 0 1 0 5.058954099465787 64.66431175320399 47.45894834469323 1 0 0
7044 0 1 0 7.89035499455252 64.7574851271255 47.85501127230857 1 0 0
7053 0 1 0 9.276451054548355 64.74383029928609 47.974778900599155 1 0 0
6356 0 1 0 1.4566220022339775 68.4227650452165 47.35866715921321 1 0 0
6354 0 1 0 1.4470032048844814 65.94589290392707 47.39882653864032 1 0 0
6307 0 1 0 2.842832742659048 68.40807959259809 47.51591447944152 1 0 0
7026 0 1 0 3.568542681546198 67.17282247207854 47.488611299625234 1 0 0
6355 0 1 0 0.7453019165975195 67.21027183182476 47.25062651294869 1 0 0
6305 0 1 0 2.907648189090491 65.99518210161058 47.40537251288624 1 0 0
7035 0 1 0 5.016526337241745 67.18669438265907 47.58601623095355 1 0 0
7047 0 1 0 7.1416911815274915 68.38476895687664 47.801925387521955 1 0 0
7045 0 1 0 7.148463232575429 65.91783936070392 47.79561967664765 1 0 0
7036 0 1 0 5.725735115867629 68.41343409013533 47.676191094852726 1 0 0
7055 0 1 0 9.28550087952028 67.19104053726953 48.01484078677579 1 0 0
7046 0 1 0 7.879007163598119 67.1362915644621 47.928280940440125 1 0 0
7034 0 1 0 5.745333394900076 65.922931924016 47.57201731898055 1 0 0
6309 0 1 0 2.8469657542085827 70.89799463896328 47.590538441130036 1 0 0
6358 0 1 0 1.4171840404715181 70.88886075868331 47.49911484836466 1 0 0
7030 0 1 0 3.6204689475729044 72.0981897849286 47.780588468313105 1 0 0
6357 0 1 0 0.6787588557390594 69.67580592157186 47.36382788591533 1 0 0
6359 0 1 0 0.6839817235110386 72.12631967625293 47.516738648037396 1 0 0
7028 0 1 0 3.582457941014327 69.64593182434993 47.48643092284378 1 0 0
6360 0 1 0 1.4130078275600007 73.3616639748598 47.66524237010771 1 0 0
6301 0 1 0 2.8857856781807927 73.325953202733 47.717998259028946 1 0 0
7037 0 1 0 5.032418745821576 69.62942387719 47.62134840567503 1 0 0
7039 0 1 0 5.04874501746325 72.10353274797414 47.83968699900404 1 0 0
7038 0 1 0 5.7414003821893544 70.83119036126408 47.840830704039966 1 0 0
7040 0 1 0 5.7578026822548125 73.29539901233106 47.954608756402486 1 0 0
7041 0 1 0 7.158592753080786 73.3010694716554 48.089130281280966 1 0 0
7057 0 1 0 9.271053115330208 69.59802785536014 47.957179815824674 1 0 0
7049 0 1 0 7.166792373415261 70.84138445430793 47.94273039996558 1 0 0
7050 0 1 0 7.93643190268502 72.07087828694863 47.96043431329939 1 0 0
7059 0 1 0 9.36911599104889 72.09191778149844 47.99823207351321 1 0 0
7048 0 1 0 7.87794378816131 69.59201518948399 47.90185182021253 1 0 0
6411 0 1 0 0.7362874374779497 74.58644085784432 47.746470033232384 1 0 0
6363 0 1 0 2.881027273522494 75.80462159641208 47.95885278361699 1 0 0
6412 0 1 0 1.491421776513393 75.8535352516863 47.85780493979753 1 0 0
7082 0 1 0 3.579134891845045 74.55860855557 47.93600000467201 1 0 0
6413 0 1 0 0.7267337043841623 77.06339101450817 47.80135849542049 1 0 0
7084 0 1 0 3.580464588851444 77.05537736284279 47.917836492888824 1 0 0
6414 0 1 0 1.4334189863154898 78.32666712315564 47.86476587402611 1 0 0
6365 0 1 0 2.834706206752355 78.25277141499916 47.83855702692914 1 0 0
7093 0 1 0 5.0415266719865395 77.06276132825664 48.040003218980324 1 0 0
7091 0 1 0 5.022989917384346 74.58526171982946 48.043676978498794 1 0 0
7111 0 1 0 9.28695325286479 74.57117189710104 48.15774101986462 1 0 0
7102 0 1 0 7.880824917526616 74.54681722823167 48.18020097811605 1 0 0
7103 0 1 0 7.176769304070799 75.79777115666255 48.21066282114328 1 0 0
7092 0 1 0 5.714773227565895 75.83885375477973 48.11993394858773 1 0 0
7113 0 1 0 9.273698107305878 77.06252103756702 48.33754603611089 1 0 0
7104 0 1 0 7.870090452157541 77.03806934562803 48.32259226832756 1 0 0
7105 0 1 0 7.201721710745456 78.26682194507093 48.35443153448925 1 0 0
7094 0 1 0 5.770610350869337 78.26026990135047 48.177537219700035 1 0 0
6416 0 1 0 1.4472719501067683 80.7263441644796 47.99821439032943 1 0 0
6415 0 1 0 0.7359351188784278 79.53645073650421 47.82881106138951 1 0 0
6367 0 1 0 2.8566619233204547 80.70778995003617 48.08458713919658 1 0 0
7086 0 1 0 3.623025862330764 79.47485833519674 47.965271087543464 1 0 0
6417 0 1 0 0.7444434649691352 82.01013756094694 48.062018123507244 1 0 0
7088 0 1 0 3.5817544980032805 82.01809988233961 48.17929966950543 1 0 0
6369 0 1 0 2.909704648098424 83.22459075142241 48.09158001408625 1 0 0
6418 0 1 0 1.4743360294682675 83.23629399863829 48.00502898062513 1 0 0