(written by ASE)

8640 atoms
1 atom types

0.0      154.00799999999998  xlo xhi
0.0      148.19999999999999  ylo yhi
0.0      151.07609208607428  zlo zhi

Masses

     1      12.010999996910238 # C

Atoms # full

     1   0   1   0.0      12.292999999999999                  11.448      9.0730000000000004
     2   0   1   0.0                   0.218     0.32900000000000001      9.0860000000000003
     3   0   1   0.0                  12.362      1.5789999999999997      9.2309999999999999
     4   0   1   0.0                   0.249      2.7869999999999999      9.2840000000000007
     5   0   1   0.0      12.337999999999999      4.0510000000000002      9.1549999999999994
     6   0   1   0.0                    0.22      5.2869999999999999      9.1809999999999992
     7   0   1   0.0      12.324999999999999      6.5039999999999996      9.1839999999999993
     8   0   1   0.0     0.17899999999999999      7.7659999999999991      9.1489999999999991
     9   0   1   0.0      12.299000000000001      9.0139999999999993      9.1370000000000005
    10   0   1   0.0     0.19700000000000001                  10.198      8.9199999999999999
    11   0   1   0.0      1.6000000000000001     0.30299999999999999      8.9879999999999995
    12   0   1   0.0      2.3159999999999998      1.5769999999999997                   9.016
    13   0   1   0.0      1.6430000000000002      2.8090000000000002      9.2040000000000006
    14   0   1   0.0      2.3420000000000001                   4.032      9.1940000000000008
    15   0   1   0.0      1.6339999999999999      5.3220000000000001      9.1890000000000001
    16   0   1   0.0      2.3980000000000001                   6.508      8.9719999999999995
    17   0   1   0.0                   1.605      7.7549999999999999      9.0690000000000008
    18   0   1   0.0      2.3199999999999998      9.0199999999999996      8.8889999999999993
    19   0   1   0.0                   1.605      10.252000000000001      8.9710000000000001
    20   0   1   0.0      2.3210000000000002      11.467000000000001      8.9559999999999995
    21   0   1   0.0      3.7680000000000002                  11.468      9.1460000000000008
    22   0   1   0.0      4.4820000000000002                   0.374      9.0860000000000003
    23   0   1   0.0      3.7690000000000001                   1.637      9.0540000000000003
    24   0   1   0.0      4.4649999999999999                   2.802      9.2430000000000003
    25   0   1   0.0                    3.77      4.0499999999999998      9.1539999999999999
    26   0   1   0.0      4.5010000000000003      5.2609999999999992      9.1319999999999997
    27   0   1   0.0      3.8380000000000001                   6.524      9.0050000000000008
    28   0   1   0.0      4.4660000000000002      7.7509999999999994      8.8889999999999993
    29   0   1   0.0      3.7469999999999999      9.0009999999999994      8.9220000000000006
    30   0   1   0.0      4.4630000000000001                  10.205      9.2129999999999992
    31   0   1   0.0      5.8959999999999999     0.34200000000000003      9.2200000000000006
    32   0   1   0.0                   6.609      1.5929999999999997      9.3350000000000009
    33   0   1   0.0      5.9170000000000007      2.8010000000000002      9.2599999999999998
    34   0   1   0.0      6.5999999999999996      4.0220000000000002      9.3490000000000002
    35   0   1   0.0                   5.875      5.2249999999999996      9.2379999999999995
    36   0   1   0.0                   6.577      6.4800000000000004      9.0939999999999994
    37   0   1   0.0      5.8810000000000011      7.6989999999999998      8.9819999999999993
    38   0   1   0.0      6.5949999999999998      8.9510000000000005      9.1370000000000005
    39   0   1   0.0      5.8870000000000005                  10.208      9.1969999999999992
    40   0   1   0.0      6.5570000000000013      11.430999999999999      9.2420000000000009
    41   0   1   0.0      7.9930000000000012                  11.472      9.2989999999999995
    42   0   1   0.0      8.7650000000000006     0.28999999999999998      9.3399999999999999
    43   0   1   0.0      8.0559999999999992      1.5309999999999999      9.3610000000000007
    44   0   1   0.0      8.7720000000000002      2.7799999999999994      9.2289999999999992
    45   0   1   0.0      8.0429999999999993      4.0430000000000001      9.2789999999999999
    46   0   1   0.0      8.7409999999999997      5.2640000000000002      9.2530000000000001
    47   0   1   0.0                   8.016       6.512999999999999      9.2520000000000007
    48   0   1   0.0      8.7200000000000006      7.7519999999999998      9.2650000000000006
    49   0   1   0.0      7.9909999999999997      8.9469999999999992      9.2300000000000004
    50   0   1   0.0      8.6929999999999996      10.207000000000001      9.3160000000000007
    51   0   1   0.0                  10.214     0.34999999999999998      9.3729999999999993
    52   0   1   0.0                  10.919      1.5680000000000001      9.4640000000000004
    53   0   1   0.0                   10.19      2.7519999999999993      9.2940000000000005
    54   0   1   0.0                  10.888      4.0469999999999997      9.2200000000000006
    55   0   1   0.0                  10.137      5.2709999999999999      9.2720000000000002
    56   0   1   0.0      10.891000000000002      6.4899999999999993      9.1649999999999991
    57   0   1   0.0      10.165000000000001      7.7199999999999998      9.2579999999999991
    58   0   1   0.0                  10.843      8.9689999999999994      9.2309999999999999
    59   0   1   0.0      10.114000000000001      10.221999999999998      9.2859999999999996
    60   0   1   0.0                  10.882      11.446999999999999      9.3330000000000002
    61   0   1   0.0      12.292999999999999      23.797999999999995      9.0730000000000004
    62   0   1   0.0                   0.218      12.678999999999998      9.0860000000000003
    63   0   1   0.0                  12.362      13.928999999999998      9.2309999999999999
    64   0   1   0.0                   0.249      15.136999999999997      9.2840000000000007
    65   0   1   0.0      12.337999999999999      16.400999999999996      9.1549999999999994
    66   0   1   0.0                    0.22      17.636999999999997      9.1809999999999992
    67   0   1   0.0      12.324999999999999      18.853999999999999      9.1839999999999993
    68   0   1   0.0     0.17899999999999999                  20.116      9.1489999999999991
    69   0   1   0.0      12.299000000000001      21.363999999999997      9.1370000000000005
    70   0   1   0.0     0.19700000000000001      22.547999999999998      8.9199999999999999
    71   0   1   0.0      1.6000000000000001      12.652999999999999      8.9879999999999995
    72   0   1   0.0      2.3159999999999998      13.926999999999998                   9.016
    73   0   1   0.0      1.6430000000000002      15.158999999999999      9.2040000000000006
    74   0   1   0.0      2.3420000000000001      16.381999999999998      9.1940000000000008
    75   0   1   0.0      1.6339999999999999      17.671999999999997      9.1890000000000001
    76   0   1   0.0      2.3980000000000001      18.857999999999997      8.9719999999999995
    77   0   1   0.0                   1.605      20.104999999999997      9.0690000000000008
    78   0   1   0.0      2.3199999999999998      21.369999999999994      8.8889999999999993
    79   0   1   0.0                   1.605      22.601999999999997      8.9710000000000001
    80   0   1   0.0      2.3210000000000002                  23.817      8.9559999999999995
    81   0   1   0.0      3.7680000000000002      23.817999999999998      9.1460000000000008
    82   0   1   0.0      4.4820000000000002      12.723999999999997      9.0860000000000003
    83   0   1   0.0      3.7690000000000001      13.986999999999998      9.0540000000000003
    84   0   1   0.0      4.4649999999999999      15.151999999999996      9.2430000000000003
    85   0   1   0.0                    3.77      16.399999999999999      9.1539999999999999
    86   0   1   0.0      4.5010000000000003      17.610999999999997      9.1319999999999997
    87   0   1   0.0      3.8380000000000001      18.873999999999999      9.0050000000000008
    88   0   1   0.0      4.4660000000000002      20.100999999999999      8.8889999999999993
    89   0   1   0.0      3.7469999999999999      21.350999999999999      8.9220000000000006
    90   0   1   0.0      4.4630000000000001                  22.555      9.2129999999999992
    91   0   1   0.0      5.8959999999999999      12.691999999999998      9.2200000000000006
    92   0   1   0.0                   6.609      13.942999999999998      9.3350000000000009
    93   0   1   0.0      5.9170000000000007      15.150999999999998      9.2599999999999998
    94   0   1   0.0      6.5999999999999996                  16.372      9.3490000000000002
    95   0   1   0.0                   5.875      17.574999999999996      9.2379999999999995
    96   0   1   0.0                   6.577      18.829999999999998      9.0939999999999994
    97   0   1   0.0      5.8810000000000011      20.048999999999999      8.9819999999999993
    98   0   1   0.0      6.5949999999999998      21.300999999999998      9.1370000000000005
    99   0   1   0.0      5.8870000000000005                  22.558      9.1969999999999992
   100   0   1   0.0      6.5570000000000013      23.780999999999999      9.2420000000000009
   101   0   1   0.0      7.9930000000000012      23.821999999999996      9.2989999999999995
   102   0   1   0.0      8.7650000000000006      12.639999999999997      9.3399999999999999
   103   0   1   0.0      8.0559999999999992      13.880999999999998      9.3610000000000007
   104   0   1   0.0      8.7720000000000002      15.129999999999997      9.2289999999999992
   105   0   1   0.0      8.0429999999999993      16.392999999999997      9.2789999999999999
   106   0   1   0.0      8.7409999999999997      17.613999999999997      9.2530000000000001
   107   0   1   0.0                   8.016                  18.863      9.2520000000000007
   108   0   1   0.0      8.7200000000000006      20.101999999999997      9.2650000000000006
   109   0   1   0.0      7.9909999999999997      21.296999999999997      9.2300000000000004
   110   0   1   0.0      8.6929999999999996      22.556999999999999      9.3160000000000007
   111   0   1   0.0                  10.214      12.699999999999998      9.3729999999999993
   112   0   1   0.0                  10.919      13.917999999999997      9.4640000000000004
   113   0   1   0.0                   10.19      15.101999999999995      9.2940000000000005
   114   0   1   0.0                  10.888      16.396999999999998      9.2200000000000006
   115   0   1   0.0                  10.137      17.620999999999999      9.2720000000000002
   116   0   1   0.0      10.891000000000002      18.839999999999996      9.1649999999999991
   117   0   1   0.0      10.165000000000001      20.069999999999997      9.2579999999999991
   118   0   1   0.0                  10.843      21.318999999999996      9.2309999999999999
   119   0   1   0.0      10.114000000000001      22.571999999999996      9.2859999999999996
   120   0   1   0.0                  10.882      23.796999999999997      9.3330000000000002
   121   0   1   0.0      12.292999999999999      36.147999999999996      9.0730000000000004
   122   0   1   0.0                   0.218      25.028999999999996      9.0860000000000003
   123   0   1   0.0                  12.362      26.278999999999993      9.2309999999999999
   124   0   1   0.0                   0.249      27.486999999999995      9.2840000000000007
   125   0   1   0.0      12.337999999999999      28.750999999999998      9.1549999999999994
   126   0   1   0.0                    0.22      29.986999999999995      9.1809999999999992
   127   0   1   0.0      12.324999999999999      31.203999999999994      9.1839999999999993
   128   0   1   0.0     0.17899999999999999      32.465999999999994      9.1489999999999991
   129   0   1   0.0      12.299000000000001      33.713999999999999      9.1370000000000005
   130   0   1   0.0     0.19700000000000001      34.897999999999996      8.9199999999999999
   131   0   1   0.0      1.6000000000000001      25.002999999999997      8.9879999999999995
   132   0   1   0.0      2.3159999999999998      26.276999999999994                   9.016
   133   0   1   0.0      1.6430000000000002      27.508999999999997      9.2040000000000006
   134   0   1   0.0      2.3420000000000001      28.731999999999996      9.1940000000000008
   135   0   1   0.0      1.6339999999999999      30.021999999999995      9.1890000000000001
   136   0   1   0.0      2.3980000000000001      31.207999999999995      8.9719999999999995
   137   0   1   0.0                   1.605      32.454999999999998      9.0690000000000008
   138   0   1   0.0      2.3199999999999998      33.719999999999999      8.8889999999999993
   139   0   1   0.0                   1.605      34.951999999999998      8.9710000000000001
   140   0   1   0.0      2.3210000000000002      36.166999999999994      8.9559999999999995
   141   0   1   0.0      3.7680000000000002      36.167999999999992      9.1460000000000008
   142   0   1   0.0      4.4820000000000002      25.073999999999995      9.0860000000000003
   143   0   1   0.0      3.7690000000000001      26.336999999999996      9.0540000000000003
   144   0   1   0.0      4.4649999999999999      27.501999999999995      9.2430000000000003
   145   0   1   0.0                    3.77      28.749999999999996      9.1539999999999999
   146   0   1   0.0      4.5010000000000003      29.960999999999995      9.1319999999999997
   147   0   1   0.0      3.8380000000000001      31.223999999999997      9.0050000000000008
   148   0   1   0.0      4.4660000000000002      32.450999999999993      8.8889999999999993
   149   0   1   0.0      3.7469999999999999      33.700999999999993      8.9220000000000006
   150   0   1   0.0      4.4630000000000001      34.904999999999994      9.2129999999999992
   151   0   1   0.0      5.8959999999999999      25.041999999999994      9.2200000000000006
   152   0   1   0.0                   6.609      26.292999999999992      9.3350000000000009
   153   0   1   0.0      5.9170000000000007      27.500999999999998      9.2599999999999998
   154   0   1   0.0      6.5999999999999996      28.721999999999994      9.3490000000000002
   155   0   1   0.0                   5.875      29.924999999999997      9.2379999999999995
   156   0   1   0.0                   6.577      31.179999999999996      9.0939999999999994
   157   0   1   0.0      5.8810000000000011      32.398999999999994      8.9819999999999993
   158   0   1   0.0      6.5949999999999998      33.650999999999996      9.1370000000000005
   159   0   1   0.0      5.8870000000000005      34.907999999999994      9.1969999999999992
   160   0   1   0.0      6.5570000000000013      36.130999999999993      9.2420000000000009
   161   0   1   0.0      7.9930000000000012      36.171999999999997      9.2989999999999995
   162   0   1   0.0      8.7650000000000006      24.989999999999991      9.3399999999999999
   163   0   1   0.0      8.0559999999999992      26.230999999999995      9.3610000000000007
   164   0   1   0.0      8.7720000000000002      27.479999999999997      9.2289999999999992
   165   0   1   0.0      8.0429999999999993      28.742999999999995      9.2789999999999999
   166   0   1   0.0      8.7409999999999997      29.963999999999995      9.2530000000000001
   167   0   1   0.0                   8.016      31.212999999999994      9.2520000000000007
   168   0   1   0.0      8.7200000000000006      32.451999999999998      9.2650000000000006
   169   0   1   0.0      7.9909999999999997      33.646999999999991      9.2300000000000004
   170   0   1   0.0      8.6929999999999996      34.906999999999996      9.3160000000000007
   171   0   1   0.0                  10.214      25.049999999999997      9.3729999999999993
   172   0   1   0.0                  10.919      26.267999999999994      9.4640000000000004
   173   0   1   0.0                   10.19      27.451999999999995      9.2940000000000005
   174   0   1   0.0                  10.888      28.746999999999996      9.2200000000000006
   175   0   1   0.0                  10.137      29.970999999999997      9.2720000000000002
   176   0   1   0.0      10.891000000000002      31.189999999999998      9.1649999999999991
   177   0   1   0.0      10.165000000000001      32.419999999999995      9.2579999999999991
   178   0   1   0.0                  10.843      33.668999999999997      9.2309999999999999
   179   0   1   0.0      10.114000000000001      34.921999999999997      9.2859999999999996
   180   0   1   0.0                  10.882      36.146999999999991      9.3330000000000002
   181   0   1   0.0      12.292999999999999       48.49799999999999      9.0730000000000004
   182   0   1   0.0                   0.218      37.378999999999998      9.0860000000000003
   183   0   1   0.0                  12.362      38.628999999999998      9.2309999999999999
   184   0   1   0.0                   0.249      39.836999999999996      9.2840000000000007
   185   0   1   0.0      12.337999999999999      41.100999999999999      9.1549999999999994
   186   0   1   0.0                    0.22      42.336999999999996      9.1809999999999992
   187   0   1   0.0      12.324999999999999      43.553999999999995      9.1839999999999993
   188   0   1   0.0     0.17899999999999999      44.815999999999995      9.1489999999999991
   189   0   1   0.0      12.299000000000001      46.063999999999993      9.1370000000000005
   190   0   1   0.0     0.19700000000000001       47.24799999999999      8.9199999999999999
   191   0   1   0.0      1.6000000000000001      37.352999999999994      8.9879999999999995
   192   0   1   0.0      2.3159999999999998      38.626999999999995                   9.016
   193   0   1   0.0      1.6430000000000002      39.858999999999995      9.2040000000000006
   194   0   1   0.0      2.3420000000000001      41.081999999999994      9.1940000000000008
   195   0   1   0.0      1.6339999999999999      42.371999999999993      9.1890000000000001
   196   0   1   0.0      2.3980000000000001                  43.558      8.9719999999999995
   197   0   1   0.0                   1.605                  44.805      9.0690000000000008
   198   0   1   0.0      2.3199999999999998      46.069999999999993      8.8889999999999993
   199   0   1   0.0                   1.605                  47.302      8.9710000000000001
   200   0   1   0.0      2.3210000000000002      48.516999999999996      8.9559999999999995
   201   0   1   0.0      3.7680000000000002      48.518000000000001      9.1460000000000008
   202   0   1   0.0      4.4820000000000002      37.423999999999999      9.0860000000000003
   203   0   1   0.0      3.7690000000000001      38.686999999999998      9.0540000000000003
   204   0   1   0.0      4.4649999999999999      39.851999999999997      9.2430000000000003
   205   0   1   0.0                    3.77      41.099999999999987      9.1539999999999999
   206   0   1   0.0      4.5010000000000003      42.310999999999993      9.1319999999999997
   207   0   1   0.0      3.8380000000000001      43.573999999999998      9.0050000000000008
   208   0   1   0.0      4.4660000000000002      44.800999999999995      8.8889999999999993
   209   0   1   0.0      3.7469999999999999      46.050999999999988      8.9220000000000006
   210   0   1   0.0      4.4630000000000001      47.254999999999995      9.2129999999999992
   211   0   1   0.0      5.8959999999999999      37.391999999999996      9.2200000000000006
   212   0   1   0.0                   6.609      38.643000000000001      9.3350000000000009
   213   0   1   0.0      5.9170000000000007      39.850999999999999      9.2599999999999998
   214   0   1   0.0      6.5999999999999996      41.071999999999989      9.3490000000000002
   215   0   1   0.0                   5.875      42.274999999999991      9.2379999999999995
   216   0   1   0.0                   6.577      43.530000000000001      9.0939999999999994
   217   0   1   0.0      5.8810000000000011      44.748999999999995      8.9819999999999993
   218   0   1   0.0      6.5949999999999998      46.000999999999998      9.1370000000000005
   219   0   1   0.0      5.8870000000000005      47.257999999999996      9.1969999999999992
   220   0   1   0.0      6.5570000000000013      48.480999999999995      9.2420000000000009
   221   0   1   0.0      7.9930000000000012      48.521999999999998      9.2989999999999995
   222   0   1   0.0      8.7650000000000006      37.339999999999996      9.3399999999999999
   223   0   1   0.0      8.0559999999999992      38.580999999999996      9.3610000000000007
   224   0   1   0.0      8.7720000000000002      39.829999999999991      9.2289999999999992
   225   0   1   0.0      8.0429999999999993      41.092999999999996      9.2789999999999999
   226   0   1   0.0      8.7409999999999997      42.313999999999993      9.2530000000000001
   227   0   1   0.0                   8.016      43.562999999999995      9.2520000000000007
   228   0   1   0.0      8.7200000000000006                  44.802      9.2650000000000006
   229   0   1   0.0      7.9909999999999997                  45.997      9.2300000000000004
   230   0   1   0.0      8.6929999999999996      47.256999999999998      9.3160000000000007
   231   0   1   0.0                  10.214      37.399999999999999      9.3729999999999993
   232   0   1   0.0                  10.919      38.617999999999995      9.4640000000000004
   233   0   1   0.0                   10.19      39.801999999999992      9.2940000000000005
   234   0   1   0.0                  10.888      41.096999999999994      9.2200000000000006
   235   0   1   0.0                  10.137      42.320999999999998      9.2720000000000002
   236   0   1   0.0      10.891000000000002      43.539999999999999      9.1649999999999991
   237   0   1   0.0      10.165000000000001      44.769999999999989      9.2579999999999991
   238   0   1   0.0                  10.843      46.018999999999998      9.2309999999999999
   239   0   1   0.0      10.114000000000001      47.271999999999998      9.2859999999999996
   240   0   1   0.0                  10.882                  48.497      9.3330000000000002
   241   0   1   0.0      12.292999999999999      60.847999999999992      9.0730000000000004
   242   0   1   0.0                   0.218      49.728999999999985      9.0860000000000003
   243   0   1   0.0                  12.362      50.978999999999992      9.2309999999999999
   244   0   1   0.0                   0.249      52.186999999999991      9.2840000000000007
   245   0   1   0.0      12.337999999999999      53.450999999999993      9.1549999999999994
   246   0   1   0.0                    0.22      54.686999999999991      9.1809999999999992
   247   0   1   0.0      12.324999999999999      55.903999999999989      9.1839999999999993
   248   0   1   0.0     0.17899999999999999       57.16599999999999      9.1489999999999991
   249   0   1   0.0      12.299000000000001       58.41399999999998      9.1370000000000005
   250   0   1   0.0     0.19700000000000001      59.597999999999992      8.9199999999999999
   251   0   1   0.0      1.6000000000000001      49.702999999999989      8.9879999999999995
   252   0   1   0.0      2.3159999999999998      50.976999999999983                   9.016
   253   0   1   0.0      1.6430000000000002      52.208999999999989      9.2040000000000006
   254   0   1   0.0      2.3420000000000001      53.431999999999988      9.1940000000000008
   255   0   1   0.0      1.6339999999999999      54.721999999999994      9.1890000000000001
   256   0   1   0.0      2.3980000000000001      55.907999999999987      8.9719999999999995
   257   0   1   0.0                   1.605      57.154999999999987      9.0690000000000008
   258   0   1   0.0      2.3199999999999998      58.419999999999987      8.8889999999999993
   259   0   1   0.0                   1.605      59.651999999999994      8.9710000000000001
   260   0   1   0.0      2.3210000000000002      60.866999999999983      8.9559999999999995
   261   0   1   0.0      3.7680000000000002      60.867999999999995      9.1460000000000008
   262   0   1   0.0      4.4820000000000002      49.773999999999994      9.0860000000000003
   263   0   1   0.0      3.7690000000000001      51.036999999999992      9.0540000000000003
   264   0   1   0.0      4.4649999999999999      52.201999999999984      9.2430000000000003
   265   0   1   0.0                    3.77      53.449999999999989      9.1539999999999999
   266   0   1   0.0      4.5010000000000003      54.660999999999994      9.1319999999999997
   267   0   1   0.0      3.8380000000000001      55.923999999999992      9.0050000000000008
   268   0   1   0.0      4.4660000000000002      57.150999999999989      8.8889999999999993
   269   0   1   0.0      3.7469999999999999      58.400999999999989      8.9220000000000006
   270   0   1   0.0      4.4630000000000001       59.60499999999999      9.2129999999999992
   271   0   1   0.0      5.8959999999999999       49.74199999999999      9.2200000000000006
   272   0   1   0.0                   6.609      50.992999999999988      9.3350000000000009
   273   0   1   0.0      5.9170000000000007      52.200999999999993      9.2599999999999998
   274   0   1   0.0      6.5999999999999996       53.42199999999999      9.3490000000000002
   275   0   1   0.0                   5.875      54.624999999999993      9.2379999999999995
   276   0   1   0.0                   6.577      55.879999999999988      9.0939999999999994
   277   0   1   0.0      5.8810000000000011       57.09899999999999      8.9819999999999993
   278   0   1   0.0      6.5949999999999998      58.350999999999992      9.1370000000000005
   279   0   1   0.0      5.8870000000000005       59.60799999999999      9.1969999999999992
   280   0   1   0.0      6.5570000000000013      60.830999999999982      9.2420000000000009
   281   0   1   0.0      7.9930000000000012      60.871999999999993      9.2989999999999995
   282   0   1   0.0      8.7650000000000006      49.689999999999984      9.3399999999999999
   283   0   1   0.0      8.0559999999999992       50.93099999999999      9.3610000000000007
   284   0   1   0.0      8.7720000000000002      52.179999999999993      9.2289999999999992
   285   0   1   0.0      8.0429999999999993      53.442999999999991      9.2789999999999999
   286   0   1   0.0      8.7409999999999997      54.663999999999994      9.2530000000000001
   287   0   1   0.0                   8.016       55.91299999999999      9.2520000000000007
   288   0   1   0.0      8.7200000000000006      57.151999999999994      9.2650000000000006
   289   0   1   0.0      7.9909999999999997      58.346999999999987      9.2300000000000004
   290   0   1   0.0      8.6929999999999996      59.606999999999992      9.3160000000000007
   291   0   1   0.0                  10.214      49.749999999999993      9.3729999999999993
   292   0   1   0.0                  10.919      50.967999999999989      9.4640000000000004
   293   0   1   0.0                   10.19      52.151999999999994      9.2940000000000005
   294   0   1   0.0                  10.888      53.446999999999989      9.2200000000000006
   295   0   1   0.0                  10.137      54.670999999999992      9.2720000000000002
   296   0   1   0.0      10.891000000000002      55.889999999999993      9.1649999999999991
   297   0   1   0.0      10.165000000000001       57.11999999999999      9.2579999999999991
   298   0   1   0.0                  10.843      58.368999999999986      9.2309999999999999
   299   0   1   0.0      10.114000000000001      59.621999999999986      9.2859999999999996
   300   0   1   0.0                  10.882      60.846999999999987      9.3330000000000002
   301   0   1   0.0      12.292999999999999      73.197999999999993      9.0730000000000004
   302   0   1   0.0                   0.218      62.078999999999994      9.0860000000000003
   303   0   1   0.0                  12.362      63.328999999999994      9.2309999999999999
   304   0   1   0.0                   0.249      64.536999999999992      9.2840000000000007
   305   0   1   0.0      12.337999999999999      65.800999999999988      9.1549999999999994
   306   0   1   0.0                    0.22      67.036999999999992      9.1809999999999992
   307   0   1   0.0      12.324999999999999      68.253999999999991      9.1839999999999993
   308   0   1   0.0     0.17899999999999999      69.515999999999991      9.1489999999999991
   309   0   1   0.0      12.299000000000001      70.763999999999996      9.1370000000000005
   310   0   1   0.0     0.19700000000000001      71.947999999999993      8.9199999999999999
   311   0   1   0.0      1.6000000000000001      62.052999999999983      8.9879999999999995
   312   0   1   0.0      2.3159999999999998      63.326999999999991                   9.016
   313   0   1   0.0      1.6430000000000002      64.558999999999997      9.2040000000000006
   314   0   1   0.0      2.3420000000000001      65.781999999999996      9.1940000000000008
   315   0   1   0.0      1.6339999999999999      67.071999999999989      9.1890000000000001
   316   0   1   0.0      2.3980000000000001      68.257999999999996      8.9719999999999995
   317   0   1   0.0                   1.605      69.504999999999995      9.0690000000000008
   318   0   1   0.0      2.3199999999999998      70.769999999999996      8.8889999999999993
   319   0   1   0.0                   1.605      72.001999999999995      8.9710000000000001
   320   0   1   0.0      2.3210000000000002      73.216999999999999      8.9559999999999995