LAMMPS data file via write_data, version 4 Feb 2025, timestep = 1000000, units = metal

1560 atoms
2 atom types

0.9328283055280356 25.994171694469713 xlo xhi
0.9328283055280356 25.994171694469713 ylo yhi
0.9328283055280356 25.994171694469713 zlo zhi

Masses

1 1.007999999740698
2 15.99899999588435

Atoms # full

1018 0 2 0 6.357493459559033 1.9552419355665158 2.389997261626098 3 -1 2
476 0 1 0 1.4528023852194083 1.7035452550403825 3.356709299945218 4 1 1
1020 0 1 0 5.879596471418695 1.7680964400574548 3.226674912833418 3 0 2
125 0 1 0 3.81781192319815 3.1151386523880076 2.0835826260744232 2 1 3
477 0 1 0 1.9834049277325199 1.9430594562958121 1.891924035521193 4 1 1
1019 0 1 0 7.093281425525177 1.307082111056596 2.3682474066060433 3 -1 2
1266 0 1 0 4.730173157627123 1.426942531691059 1.574862459711768 1 2 1
475 0 2 0 1.2005448250916324 2.077568233324663 2.423260747599725 4 1 1
124 0 2 0 3.852570858483028 4.020762009435685 1.7279518462587269 2 1 3
31 0 2 0 4.618463847010049 2.3701635067247686 4.470294536392411 2 2 -1
32 0 1 0 3.6456564394121154 2.137658747359951 4.540272636291809 2 1 -1
744 0 1 0 2.9307605904384078 1.885715557641038 7.160849863860994 2 2 2
33 0 1 0 4.78969864394088 3.387177778372055 4.451340317943198 2 1 -1
496 0 2 0 1.6864978030135545 1.431470565241404 4.916328425467853 2 2 2
743 0 1 0 4.095293258328683 2.6904882950484836 6.503936963992168 2 2 2
742 0 2 0 3.582915819103718 2.6296753568126876 7.305620546512688 2 2 2
737 0 1 0 4.359721956160337 2.5031390654339316 9.31042236145018 0 1 2
198 0 1 0 1.0217768092814523 2.878403172422412 8.759200243512497 2 0 0
736 0 2 0 4.412252083318119 2.453578151420451 10.284698596042741 0 1 2
781 0 2 0 1.44808534599404 1.1397648842043542 8.164143103370424 3 1 0
1340 0 1 0 6.148875435237643 2.144021325902168 10.926683742644109 4 0 2
1339 0 2 0 7.0986261309231375 1.9357433324527165 11.144440608497106 4 0 2
1179 0 1 0 1.8021390884006232 3.71986686609557 13.083556501394321 2 1 1
738 0 1 0 3.817818073597776 1.7180856376109266 10.553042603383306 0 1 2
212 0 1 0 1.7796728880262567 1.0938080135359847 11.407214677394037 3 0 0
1341 0 1 0 7.062953501908568 1.3178409429362818 11.910691304290452 4 0 2
1093 0 2 0 6.240062946208323 1.5161386177875378 15.537109529138382 3 1 2
1177 0 2 0 2.0619580675829328 2.9802556465169996 13.701681387241313 2 1 1
831 0 1 0 4.652200255609098 2.8866618371570665 15.874282054293017 2 1 -1
830 0 1 0 3.344090969281725 3.5060820513587285 15.30562482823632 2 1 -1
829 0 2 0 4.095797286074683 3.7105248671626674 15.809967697608593 2 1 -1
825 0 1 0 1.001621949047008 3.560672553838845 15.423053069122194 2 0 -1
1095 0 1 0 7.071843259015239 2.0361048382455524 15.317427537788094 3 1 2
1094 0 1 0 6.417142292987831 1.1480909200126401 16.424980385561266 3 1 2
1178 0 1 0 1.4515812717895247 2.2390790805927443 13.55985023950679 2 1 1
269 0 1 0 4.593884212530885 3.3297624969992827 19.112044195464776 4 1 1
824 0 1 0 1.0803234990363615 3.7934340052276108 16.97069422282629 2 0 -1
484 0 2 0 1.3822265968686298 3.4922495624732677 18.989081555560993 2 1 1
750 0 1 0 5.160226136328167 0.956488815859723 19.44864694495003 4 -1 1
485 0 1 0 2.3479624471300378 3.688193638175395 19.02398758555618 2 1 1
270 0 1 0 4.191405237640775 3.9023265846423105 17.747717714653124 4 1 1
486 0 1 0 1.1534405147043632 2.5796799156334647 19.316011685193423 2 1 1
127 0 2 0 5.0934878949896625 3.9222241288477973 21.628760288177904 2 0 -1
749 0 1 0 5.344362301043955 1.9150137190939005 20.728380416734357 4 -1 1
748 0 2 0 4.668668144753213 1.520865996102068 20.142115261398036 4 -1 1
303 0 1 0 2.4094844326194975 3.7984076356514556 25.065043995907903 2 2 1
301 0 2 0 2.3725870003271186 3.132676496242428 24.393148909175093 2 2 1
854 0 1 0 6.695900761303374 2.733085715711406 25.86640205740229 3 1 -1
1206 0 1 0 5.39192209073747 1.500064267199018 24.18036473555317 4 0 -2
853 0 2 0 7.074997632513243 2.9503155139566863 24.920401763302458 3 1 -1
855 0 1 0 6.777902839965483 3.8969256391509917 24.756966982252532 3 1 -1
302 0 1 0 2.315402381677964 3.642691172500048 23.56133858037452 2 2 1
1404 0 1 0 2.0549821837746305 5.158063876064218 2.336229931603594 3 1 1
126 0 1 0 4.302518118634343 4.477457989747805 2.478456814323846 2 1 3
1402 0 2 0 1.5439994924383522 5.976646811766356 2.417642384458205 3 1 1
386 0 1 0 4.130114252863788 5.358672135025127 4.818663295576451 2 0 1
950 0 1 0 6.206913021466392 5.485917679945422 6.700001097143998 4 2 1
849 0 1 0 3.600574274981341 6.6527300859937 6.229375991743825 4 2 0
847 0 2 0 2.970845252466623 5.915980315559712 6.151894697405406 4 2 0
848 0 1 0 2.976537977211149 5.328842199698583 6.933294135111678 4 2 0
387 0 1 0 5.542798046697775 5.66037048486496 4.167492091768105 2 0 1
385 0 2 0 4.759907630989114 5.122894208443638 4.092383575266779 2 0 1
949 0 2 0 5.937315295889089 4.577586829299519 7.132764278897487 4 2 1
833 0 1 0 3.0797510266829606 4.384825223960865 9.274591263993194 3 3 1
832 0 2 0 3.7230976227959776 5.175098709367276 9.084530419874492 3 3 1
951 0 1 0 6.580087659566465 4.518076199386891 7.8364925385662865 4 2 1
834 0 1 0 4.37454257632157 4.746932650540411 8.487047581931547 3 3 1
1054 0 2 0 1.2310143158608222 6.915849261239042 9.12161363102814 5 2 1
1055 0 1 0 1.9331786729386118 6.231687730872528 8.925541979512289 5 2 1
174 0 1 0 1.7812087086922679 5.7629242256546 13.257984648428758 2 1 1
298 0 2 0 4.586524081308056 6.474699068319929 11.355009055681572 3 0 1
1232 0 1 0 5.54599363648462 5.83216376498924 13.185013235819158 3 3 0
172 0 2 0 1.9939895922804722 5.422054252867061 12.353274771728833 2 1 1
173 0 1 0 2.816290641333692 5.95548482822077 12.113925680140957 2 1 1
789 0 1 0 6.524543094009741 5.515914683320078 10.40877840514992 3 0 2
299 0 1 0 4.272324109042034 6.086828564296831 10.545185331932043 3 0 1
1233 0 1 0 5.013910356855974 4.533898407025796 13.969854568754355 3 3 0
1234 0 2 0 2.891626922258539 6.501640490590477 15.33810433417226 3 2 2
1231 0 2 0 5.473574883086043 5.426814795607412 14.042122881620381 3 3 0
1235 0 1 0 3.6537813642544337 6.131358020783061 14.847181596666154 3 2 2
1434 0 1 0 6.87344245639931 5.284868795157268 14.88460816178886 2 1 0
1236 0 1 0 2.3941774265647404 5.805785568806331 15.845523242908678 3 2 2
268 0 2 0 4.612787210203313 4.136227920608088 18.6155553618296 4 1 1
734 0 1 0 6.472774336706578 4.6481224056935 18.269198278072466 3 1 -1
128 0 1 0 5.712762635503996 4.551975807466157 21.20659465885545 2 0 -1
674 0 1 0 2.5067773627809196 5.511704726520464 22.150988054639743 3 3 0
570 0 1 0 6.1541437169918565 6.746005638500851 20.538690770872957 3 1 1
673 0 2 0 2.374657050251754 4.513112216719145 21.983806721391 3 3 0
568 0 2 0 6.789248776542482 6.081754098194149 20.849519305849647 3 1 1
129 0 1 0 5.0884902221423545 4.186843765871998 22.493521517322325 2 0 -1
675 0 1 0 3.194197388529479 4.212950687770321 21.526739896021013 3 3 0
569 0 1 0 7.136715089784097 5.8260097937333395 19.938359810227446 3 1 1
704 0 1 0 5.686866996503379 6.3971766765058 24.25742700560747 1 1 1
705 0 1 0 4.64256711973811 5.35353536672777 24.803526600989322 1 1 1
634 0 2 0 2.674320069895528 6.849370101244706 25.109256571173095 2 0 -1
703 0 2 0 5.3983135984499535 5.414724222359351 24.226572586965357 1 1 1
635 0 1 0 1.951967910142454 6.492570470408824 24.529267073756806 2 0 -1
636 0 1 0 2.3881456074390797 6.515949079943183 25.946532801851127 2 0 -1
1551 0 1 0 2.2932397990113715 7.730306940202305 3.10538171393421 3 3 0
1106 0 1 0 4.26221112127391 8.455525304977394 1.9628479046857217 3 1 1
1549 0 2 0 2.889718328643683 8.520456157096014 3.2523460730376206 3 3 0
1105 0 2 0 5.152869306126062 8.87353636480531 1.5731533162316087 3 1 1
467 0 1 0 6.534075832395905 8.571327723848167 2.676419105191599 2 1 1
1550 0 1 0 2.2093973387683765 9.30840776870287 3.095285953722907 3 3 0
1349 0 1 0 1.1403787461827457 10.039056595063741 1.7146710421952152 4 2 2
1107 0 1 0 4.965305525859444 9.843346914400227 1.6958680459049114 3 1 1
1295 0 1 0 4.710332196258846 9.138893691308322 6.111725845710758 5 0 2
199 0 2 0 1.6164076049583218 8.901868223082559 6.785215315787867 2 0 1
200 0 1 0 2.4715944677644983 8.545410965940887 6.588388664623442 2 0 1
1294 0 2 0 4.28693294937307 8.354741066412886 5.717427635565675 5 0 2
1296 0 1 0 4.07643350562351 8.640351755066368 4.721087430259812 5 0 2
1041 0 1 0 6.621788838888633 7.623308585518897 6.710684118871517 4 0 1
201 0 1 0 1.0622705439248195 8.141579675267494 7.024586233812885 2 0 1
800 0 1 0 1.8097484426600488 9.92906622600123 9.938666591798224 4 1 2
801 0 1 0 1.6804062498798569 9.806129030754773 8.354459072689485 4 1 2
130 0 2 0 6.4058081803571705 8.288956042668666 8.268481626688354 3 0 1
131 0 1 0 7.088566715652167 8.015291830242031 8.912763201752645 3 0 1
132 0 1 0 5.797931413082331 8.72493115346014 8.864759437638428 3 0 1
1208 0 1 0 4.914603346111499 10.323912156034291 10.074159269296974 2 1 -1
23 0 1 0 3.7005688853299303 9.000046289553874 12.528910950818313 1 1 2
1207 0 2 0 5.152219555778385 9.436198953593662 10.4000734890828 2 1 -1
1209 0 1 0 5.840907893451412 9.663653466968123 11.077120718988706 2 1 -1
859 0 2 0 7.183180903830863 9.874698655064044 12.322946041590523 3 -1 -1
1152 0 1 0 1.338318026437972 8.498217211935254 11.880744200755712 3 2 1
1150 0 2 0 2.0307994458123266 8.631596175200501 11.184641601024245 3 2 1
300 0 1 0 4.493472151236371 7.4708923593079755 11.256442776795337 3 0 1
1151 0 1 0 1.6875779581480121 8.059563561232597 10.444514345960867 3 2 1
1057 0 2 0 5.805823355805192 8.128814702228848 15.750647166201599 3 0 0
1059 0 1 0 5.618863909387819 7.21577736116511 15.474615796630212 3 0 0
1058 0 1 0 6.748797695562955 8.216909022522268 15.795553780349305 3 0 0
1524 0 1 0 1.6923960761375678 7.302254526575887 14.457178852805649 3 2 1
233 0 1 0 4.969104730961735 10.252926927097587 15.417537345398049 2 0 0
24 0 1 0 4.7167305709504355 8.58436717436564 13.679551034479983 1 1 2
1522 0 2 0 0.9981961314264538 7.893960353349397 14.140604625620929 3 2 1
1523 0 1 0 1.3874284664844296 8.830723502850761 14.217356500523202 3 2 1
22 0 2 0 3.998899737380046 9.192805223925546 13.46576112310321 1 1 2
793 0 2 0 1.4743569472368558 8.166072319218978 18.346928607323015 3 2 1
795 0 1 0 1.054095238477583 8.897208740430985 17.787242567344155 3 2 1
564 0 1 0 4.627673028920657 8.308489261459783 19.323486099592415 3 3 0
1017 0 1 0 4.560947123662763 8.567501965864414 17.10820631676764 3 0 1
1016 0 1 0 3.2714707842483746 8.745074801657848 18.07999384116969 3 0 1
1015 0 2 0 4.212426535724358 9.063199433973308 17.90342682147767 3 0 1
794 0 1 0 1.0818787557408127 8.250366379262978 19.25158537253974 3 2 1
563 0 1 0 5.24109218528241 9.034600587699332 20.5511257630711 3 3 0
264 0 1 0 3.573703752343982 7.744234660756188 21.608723917231874 3 1 0
562 0 2 0 4.904217961669651 8.135809721571334 20.27840422137841 3 3 0
262 0 2 0 2.8618757648924413 7.48645433930353 22.229170683736328 3 1 0
503 0 1 0 0.9818799057145557 7.684563966374726 21.392770007814192 2 1 0
1473 0 1 0 5.393477860792152 8.376031611229774 24.980851614188854 3 0 1
1472 0 1 0 6.036647961398615 8.605444788499065 23.597891930414548 3 0 1
1471 0 2 0 5.528056208250856 7.970397623888041 24.095301911969543 3 0 1
388 0 2 0 1.2340281129358992 9.395825783698916 25.16186385469913 2 -1 -1
389 0 1 0 1.390375503577702 8.426096405441667 24.98828700084268 2 -1 -1
263 0 1 0 3.2675357115611483 7.617554606105112 23.139499955383645 3 1 0
1406 0 1 0 1.3717131860361724 12.48883467171253 2.0932687443426206 4 1 1
406 0 2 0 5.288942652677532 11.895378676157032 2.257047470540394 4 1 1
407 0 1 0 6.189424043993111 11.80678953028153 1.9077713567951482 4 1 1
1348 0 2 0 1.296881089680273 10.599717021333026 2.5753269626907285 4 2 2
408 0 1 0 5.522007612791686 11.91318940822775 3.210614586548302 4 1 1
1407 0 1 0 1.4465443196496355 13.336050897425975 3.3388178148413963 4 1 1
1405 0 2 0 1.656821184934849 13.407620383554788 2.3911993986670765 4 1 1
526 0 2 0 6.908869499707002 11.631319824527456 4.626339663659766 0 2 3
1053 0 1 0 4.7174507829559795 11.140964851281332 7.028165796318766 3 0 1
356 0 1 0 1.0020732876014604 12.936271081408716 5.331919502957639 3 1 1
1463 0 1 0 2.9619649240475048 12.514198934290011 6.948081622927435 3 -1 1
528 0 1 0 6.463223697911873 11.243278267919695 5.47248917801637 0 2 3
1051 0 2 0 5.499552719796802 10.684232866790234 6.56427536025882 3 0 1
799 0 2 0 1.8055342189575834 10.43563240906092 9.128281190148744 4 1 2
1464 0 1 0 3.0271507570279255 11.372709808773848 8.227925051253441 3 -1 1
1462 0 2 0 3.516757554620824 12.05310151638525 7.6822271785140455 3 -1 1
776 0 1 0 4.705443225556241 12.618365940378629 9.04230233731362 2 -1 1
777 0 1 0 5.524153294059489 12.993134707249293 10.28904492402314 2 -1 1
775 0 2 0 4.941155496429968 12.292078096254164 9.915001323919308 2 -1 1
1052 0 1 0 6.124174765729057 10.605993778593112 7.318322703356139 3 0 1
649 0 2 0 4.001622607691388 12.103079475484204 13.043175823523448 3 1 0
651 0 1 0 4.9370565108798505 12.30400404111272 13.25042749293224 3 1 1
650 0 1 0 3.902063504594454 11.17356941684309 12.760450038505535 3 1 1
546 0 1 0 2.7352202058579707 12.725178856549865 11.847766096000893 4 2 1
544 0 2 0 2.133093663676483 13.274070327678547 11.399869779855477 4 2 1
741 0 1 0 3.949763367478268 13.02997326233723 15.53226150688454 4 0 2
312 0 1 0 2.7158468178452675 10.867248765873164 15.305289677945986 2 2 -1
311 0 1 0 1.3396881275370922 10.669060987770047 16.214175838290203 2 2 -1
665 0 1 0 6.680179035554049 12.177219175468034 15.804012786609125 2 3 0
310 0 2 0 1.7489748108575343 10.649588191646055 15.338689006173736 2 2 -1
666 0 1 0 6.840028107625901 13.051278905987115 14.614156263214474 2 3 0
232 0 2 0 4.93297000228816 11.115367956046686 15.89787446937141 2 0 0
59 0 1 0 1.1264734381943633 12.277615953997033 14.779883833887963 3 -1 2
60 0 1 0 0.9798839397447523 13.258486442436158 13.521605410713297 3 -1 2
1541 0 1 0 4.5679078294443425 12.958196235353594 18.246566748030087 4 1 1
1540 0 2 0 4.167108368785189 12.101000362694183 18.41293692888899 4 1 1
234 0 1 0 4.739062143132327 10.966370676818238 16.851110170511728 2 0 0
1542 0 1 0 3.2587207178415896 12.372181146492304 18.59677765890146 4 1 1
1069 0 2 0 1.1602785404014266 13.234498954180827 18.85730587106745 4 1 0
797 0 1 0 5.058732166879384 11.691607924526213 19.845424034138333 3 1 0
318 0 1 0 2.5526175860789837 12.024785180874932 22.216813797540393 2 -1 1
1070 0 1 0 1.038831695325391 13.258112037921478 19.83620553293964 4 1 0
798 0 1 0 5.505463385406431 11.641286059702358 21.405495896895797 3 1 0
796 0 2 0 5.814604384766454 11.40647901583893 20.542885128721366 3 1 0
316 0 2 0 2.29996088051244 11.696844058185844 21.32361584184776 2 -1 1
474 0 1 0 7.136835723992198 12.318838585401313 19.874258553922804 2 3 0
317 0 1 0 1.382563098949825 11.447911086305622 21.376385238564566 2 -1 1
351 0 1 0 6.950281374031085 10.841018299015644 23.59716805268351 3 2 0
307 0 2 0 3.0521351601342497 11.696903994834793 24.4305503722135 3 1 2
1162 0 2 0 5.71920410336467 11.930545463100996 23.63907708781717 3 0 1
308 0 1 0 2.2877346193566677 12.301449901239753 24.622383390094456 3 1 2
1163 0 1 0 5.96479482308746 12.823953137485015 23.885917065296386 3 0 1
1164 0 1 0 4.806072331346737 11.84298887525952 23.959719220453483 3 0 1
309 0 1 0 2.5600987735774656 10.836910357065703 24.623484659710336 3 1 2
86 0 1 0 5.212224619217558 13.729569115882523 1.0835364318640952 3 2 0
87 0 1 0 5.497242306732594 15.160106596930444 1.5385352816838374 3 2 0
588 0 1 0 5.230988526968636 14.27127096924677 5.085397981816166 3 2 0
586 0 2 0 4.2939975381268 14.573880238175477 5.241455087763806 3 2 0
123 0 1 0 3.68084466045483 16.45687489784461 5.1898431575697135 2 -1 0
587 0 1 0 3.613545570146289 13.918636016064841 4.957013890897961 3 2 0
357 0 1 0 1.4794472319693346 14.491991105227205 5.722530968162336 3 1 1
1086 0 1 0 4.826639918193871 15.074348109317487 6.838110716192686 4 1 1
355 0 2 0 1.7342714615745867 13.580255658083914 5.441961432093765 3 1 1
1309 0 2 0 3.132276080039573 15.72748857647258 9.553207332340783 3 1 1
1310 0 1 0 3.5626327449867143 15.41304087313813 8.742117138432908 3 1 1
1311 0 1 0 2.223247916813515 15.971001869003818 9.183483824696378 3 1 1
1084 0 2 0 5.141303248540181 15.600320525367263 7.625340427648932 4 1 1
1085 0 1 0 5.955321646221766 15.105359113044804 7.9486639741410725 4 1 1
1535 0 1 0 5.266696310221266 15.775721844941463 10.24417530467803 2 2 2
1453 0 2 0 6.564105302938896 14.178385869134628 13.027318999921855 3 1 1
545 0 1 0 2.4758619606769776 13.869591877891795 10.681746153553902 4 2 1
1455 0 1 0 7.036397337051166 13.664722416395511 12.351373028662401 3 1 1
1454 0 1 0 5.734509022273098 14.515787501544363 12.642792681574775 3 1 1
1534 0 2 0 6.090181510173408 16.13426477743494 10.580345283018346 2 2 2
739 0 2 0 3.659477273822121 13.960317205473604 15.29820391876897 4 0 2
216 0 1 0 2.905949309781663 15.141892189079456 16.384902123629644 1 0 0
740 0 1 0 2.8707288856610287 13.949237452538735 14.733758075100726 4 0 2
611 0 1 0 3.0168521928877383 15.571617815909244 18.678312932614283 4 1 1
490 0 2 0 5.970606816143814 14.127377224486864 17.726896450847256 3 1 1
214 0 2 0 2.3798158384686334 15.76327328067672 17.019426482247383 1 0 0
492 0 1 0 5.724644235713238 15.046252193653316 17.706722798920126 3 1 1
215 0 1 0 1.4573368435887386 15.383615924610329 16.943646373068205 1 0 0
491 0 1 0 6.447638177780737 13.936960519774239 16.88162335126096 4 1 1
1071 0 1 0 1.664926694335085 13.957357410061901 18.565035133815496 4 1 0
610 0 2 0 3.526449077326213 15.152536633403333 19.428380344165017 4 1 1
284 0 1 0 5.529133910313473 15.187095367116278 20.275074199170497 3 0 -1
283 0 2 0 6.196127689574519 15.323556463078267 21.017201539285068 3 0 -1
612 0 1 0 2.9053929455671357 15.26915866499613 20.208628602269712 4 1 1
285 0 1 0 6.8707655568423815 14.633484700295831 20.873572119803764 3 0 -1
1418 0 1 0 1.0365920907746156 16.579811909977703 20.885331872065002 4 2 -2
815 0 1 0 6.235940124774013 14.932072575249505 22.80821630510001 4 1 0
1269 0 1 0 4.078248502980701 15.403054991043712 25.13605168480573 2 2 -2
814 0 2 0 6.82768384747844 14.483961982439057 23.494936247546207 4 1 0
816 0 1 0 6.441318507069767 14.813646843244992 24.359025171950414 4 1 0
1267 0 2 0 3.5687025079575316 15.969944689582338 24.537292731997834 2 2 -2
85 0 2 0 5.466108208663453 14.579886904734845 25.804324933391353 3 2 -1
1268 0 1 0 3.031545194241442 16.471931324399815 25.217644562640967 2 2 -1
106 0 2 0 2.215135419095862 17.428335929362845 2.2050406137126206 2 2 2
108 0 1 0 2.6899653469058626 17.104831700526315 3.0588445392815338 2 2 2
1323 0 1 0 6.583513516323754 16.847785060728754 2.653825131721672 4 0 0
1322 0 1 0 5.2850893152020335 17.05704531466569 3.5521419923468303 4 0 0
1485 0 1 0 3.3461680363175086 19.139124189259295 1.851089744124953 4 0 3
609 0 1 0 1.0065609508229707 18.567414416457183 2.881678334392591 2 0 0
1321 0 2 0 5.575025658299184 16.71858659317565 2.6198382985684203 4 0 0
107 0 1 0 1.4252549950048747 16.746711689576276 2.106226374131913 2 2 2
121 0 2 0 3.5294780702873716 17.325086659326654 4.7442288419644445 2 -1 0
122 0 1 0 3.316953281387522 18.012859572887017 5.394326858553078 2 -1 0
727 0 2 0 2.0829192184415737 18.92802822148813 6.821581341430166 3 0 1
101 0 1 0 1.5386754317959084 16.908370296099704 5.746841811244771 4 1 1
249 0 1 0 6.06056729577783 16.893925424423344 6.846888703579889 2 2 3
247 0 2 0 6.87507234643089 17.446475960257448 6.508869564844848 2 2 3
930 0 1 0 7.069800090487848 19.38783408174996 4.123344519895405 4 -1 2
1032 0 1 0 4.6918782845877995 19.432291401919343 8.470520369295812 2 0 1
1031 0 1 0 4.553662794861198 17.982276231575934 9.059962167040396 2 0 1
729 0 1 0 2.6231157404203356 18.688527401424135 7.656363019957257 3 0 1
1030 0 2 0 4.080096422025171 18.730664186193813 8.728279511217945 2 0 1
1538 0 1 0 4.209361588185811 17.804738728764406 12.345067844229996 2 1 1
347 0 1 0 3.1762718058712633 18.697629180992042 10.584995536327055 5 0 2
38 0 1 0 1.3497103375513664 18.34584573246256 12.381516821252186 2 0 1
346 0 2 0 3.0171529432457356 18.86533352609636 11.536431989683539 5 0 2
1537 0 2 0 5.0995621380224945 17.494349091529863 12.680665521045936 2 1 1
1536 0 1 0 5.730417030268761 16.676137401777144 11.302880925853968 2 2 2
851 0 1 0 1.6043244006227648 17.541903812582124 15.984268585485893 2 -1 -1
426 0 1 0 6.372881819108746 17.69913958403746 15.899904469271581 3 2 -1
424 0 2 0 6.824875405337568 18.010146447248452 15.04845453870784 3 2 -1
850 0 2 0 0.9726633560890645 18.232776376893575 15.648585367639445 2 -1 -1
1539 0 1 0 5.259394784709783 17.95645562641986 13.495628713734238 2 1 1
251 0 1 0 1.7816977230290805 19.69366371669179 15.94988813095229 2 -1 1
425 0 1 0 6.805855604660528 18.993022848643516 15.126855014484518 3 2 -1
69 0 1 0 3.504446448931223 19.343920225113713 18.869912133232983 2 0 0
3 0 1 0 5.019604964046774 17.809494544477356 17.84604446817513 1 1 -1
68 0 1 0 3.130739748495092 19.262733324180747 17.406071179442506 2 0 0
2 0 1 0 6.548445326242053 17.915494833745168 18.348964613575465 1 1 -1
67 0 2 0 3.512591557546766 18.734389298636007 18.160086737010264 2 0 0
1 0 2 0 5.888965167566154 17.35565528246702 17.866031335537237 1 1 -1
1447 0 2 0 1.714256583681661 18.064325174190373 21.7733201885626 3 1 -1
41 0 1 0 5.119572440414798 17.76429196950384 22.26630274431435 2 0 1
1448 0 1 0 2.689374927570068 18.204586059777863 21.60896913271558 3 1 -1
40 0 2 0 4.610289062366548 18.105140442683943 21.449871247515265 2 0 1
1449 0 1 0 1.2051977732668706 18.700866648445515 21.29285524528792 3 1 -1
42 0 1 0 4.858368814218541 17.589561207547085 20.624543089915583 2 0 1
464 0 1 0 5.666628530501647 19.688454265740045 21.39500941977442 3 -1 0
614 0 1 0 5.8536737141400845 18.351560227083425 24.058823543692352 4 1 0
613 0 2 0 5.863537731549743 17.382614713215613 23.87017867442169 4 1 0
615 0 1 0 4.976120899527387 16.989592743404696 24.269662297872213 4 1 0
1483 0 2 0 3.8499055861763067 19.940292456025414 1.8596041925427484 4 0 3
928 0 2 0 6.2988905758917575 19.953593463733746 3.8885339765783664 4 -1 2
1160 0 1 0 2.5854271660967667 21.542008705735782 3.0537601019212817 4 1 1
1159 0 2 0 2.715612151095852 22.00478136470648 3.9004449274502226 4 1 1
1484 0 1 0 4.510583467420528 19.795752053635628 2.571780533276691 4 0 3
1392 0 1 0 1.9459429740793954 22.5213875114217 6.6721031688151 2 2 -1
1161 0 1 0 2.724232887810754 21.32452498357738 4.6164395724429195 4 1 1
1390 0 2 0 2.5007160589474133 21.731772503659382 6.835952221687606 2 2 -1
728 0 1 0 2.0809771393495273 19.892146839770792 6.736658566738959 3 0 1
929 0 1 0 6.513125172395704 20.84067935883617 4.196877428273003 4 -1 2
1060 0 2 0 6.065338355932531 20.76953372821615 8.608961451527433 2 1 2
1391 0 1 0 3.123910876019145 22.103149064959638 7.4744430359424285 2 2 -1
1062 0 1 0 6.80573639167224 20.518907895399657 7.970457378403866 2 1 2
1061 0 1 0 5.67467595962311 21.524590911409028 8.180607832806144 2 1 2
223 0 2 0 4.06982324361044 21.320317332336558 12.570069091540452 2 0 0
224 0 1 0 4.764311811746766 21.900309151232584 12.15187288625481 2 0 0
62 0 1 0 3.0521943256857056 22.83906560226999 11.773106175647388 2 2 2
812 0 1 0 1.1446935073575197 20.21642252399871 11.064187569221486 3 -1 1
63 0 1 0 1.8110241472849098 22.200648855188017 11.058533205342352 2 1 2
1442 0 1 0 7.034354213506403 20.420448149425464 10.528242311252711 3 0 2
348 0 1 0 3.3757158775406073 19.746571266039176 11.764074673719554 5 0 2
1498 0 2 0 4.772129830367129 22.0679022880737 15.419031654957452 3 0 1
478 0 2 0 1.0242336692042124 22.165379168686712 13.818160184108935 2 1 3
864 0 1 0 6.629276650294516 21.3340422307967 15.47677269329258 3 0 -1
1500 0 1 0 4.297143860199682 21.586278721298093 16.121510260656304 3 0 1
479 0 1 0 1.140873502278853 21.420924786231204 14.429908418261997 2 1 3
250 0 2 0 2.4613867189965335 20.343362424664733 16.12836920344883 2 -1 1
225 0 1 0 4.274341357272401 21.27415893308578 13.524715518260859 2 0 0
411 0 1 0 2.804896852706833 21.67594056297573 19.448173628041776 1 0 1
718 0 2 0 2.022904122362894 22.637951979447426 17.50708896187755 5 1 0
252 0 1 0 1.987490239327975 21.075812100291884 16.6246330973888 2 -1 1
1289 0 1 0 4.951425148214224 22.07366970468553 19.68064152051003 5 0 0
463 0 2 0 6.243757743830208 20.49163007369182 21.50761935835753 3 -1 0
410 0 1 0 3.1673366236708937 21.22971222559277 20.931772781488682 1 0 1
1246 0 2 0 1.8508002499567526 22.400703346259494 22.167349057910165 2 -1 -2
465 0 1 0 5.8575670368705355 21.10594718139667 20.839677503182166 3 -1 0
1248 0 1 0 0.9716441516200902 22.166107026819247 22.4798260359062 2 -1 -2
409 0 2 0 3.3515870505097225 21.061658987814546 19.987784613557647 1 0 1
1288 0 2 0 5.789208291186565 22.555791752625655 19.731190324100563 5 0 0
906 0 1 0 3.5796365043180303 21.455257812261298 25.274420745319286 4 0 1
885 0 1 0 5.3284438705419594 20.6752347166516 24.83646519671853 4 0 1
904 0 2 0 3.1588601465570827 22.26840423583575 24.890680130650157 4 0 1
905 0 1 0 2.808946566973391 22.13151449033234 23.96446459426961 4 0 1
883 0 2 0 6.101348631252483 20.27344542376022 24.363891290066046 4 0 1
884 0 1 0 6.120385238193094 20.4725438585084 23.394976706465947 4 0 1
699 0 1 0 1.300803322800527 21.861787903264666 25.866809361829194 3 0 1
1494 0 1 0 4.530741817326924 24.39172363521814 2.830530067013301 3 2 0
1492 0 2 0 4.915049772074954 23.576789028368726 3.2847699348797654 3 2 0
1264 0 2 0 3.920099024487191 25.92897103379462 1.6538039833381613 1 1 1
1493 0 1 0 4.08547436838339 23.011963304270036 3.432469587458027 3 2 0
1548 0 1 0 6.023600033784467 23.53975596500143 4.483689460243255 3 0 2
1546 0 2 0 6.778769752467043 23.510737383266715 5.154182634892121 3 0 2
1547 0 1 0 6.4366662623566375 23.953494233919475 5.940669441370553 3 0 2
1435 0 2 0 1.2289504480025717 23.97787521725137 5.342084135406564 4 0 0
498 0 1 0 1.5019394426895158 25.527570516565486 4.936700887155096 2 1 2
1436 0 1 0 1.6658123859432419 23.295251034340684 4.68049010680269 4 0 0
917 0 1 0 6.1993292525402115 25.067142425018208 8.240306446020906 2 0 0
918 0 1 0 5.105193920999855 25.718240672378993 7.233018493387595 2 0 0
916 0 2 0 5.526264618581191 24.869802934061656 7.587582636024663 2 0 0
1131 0 1 0 4.3968220333277594 23.7042910843649 8.388599192801593 4 0 0
783 0 1 0 1.6140058880962698 25.78921517842581 9.006020412253635 3 0 0
1129 0 2 0 4.035504536460582 22.9048248742656 8.768782139520475 4 0 0
1130 0 1 0 3.5260930832551822 23.060512346913853 9.58167637167295 4 0 0
211 0 2 0 2.171946741477955 25.747901219028652 10.640216747398012 3 -1 0
61 0 2 0 2.44192723566551 22.965285662951818 10.986624211433279 2 1 2
213 0 1 0 2.2362342802182957 24.789728872935143 10.945313033317124 3 -1 0
1518 0 1 0 5.410909471106955 24.54505419493769 12.95614111060579 4 1 1
145 0 2 0 5.956190480653738 23.0363387742535 11.5448807354232 3 0 1
147 0 1 0 6.667581776602801 23.333624231014365 12.074735560957807 3 0 1
146 0 1 0 6.156938627972594 23.40021606127971 10.657839306503252 3 0 1
1517 0 1 0 5.548987828166783 25.195584289821994 14.40708697378732 4 1 1
1516 0 2 0 4.9714456075711615 24.639991046336057 13.824313680687311 4 1 1
1377 0 1 0 3.46639693946227 25.183918664806733 15.264041100354014 2 0 -1
1376 0 1 0 2.585547195469514 25.51766313871839 16.46709195414705 2 0 -1
231 0 1 0 1.1961232941825122 24.32854420690563 13.934291342513776 3 2 1
1375 0 2 0 3.3363477438156637 24.90347403811318 16.175637151709754 2 0 -1
1499 0 1 0 4.467857879827008 22.98477147076398 15.208088825936114 3 0 1
720 0 1 0 1.1573508705634694 23.047364781907252 17.803417639098978 5 1 0
1022 0 1 0 5.4937919537003195 24.200218376629344 18.245903115481077 2 0 -1
1023 0 1 0 4.636908787556839 25.154388924204582 17.454583814251873 2 0 -1
1021 0 2 0 5.431978727567942 25.164923545953297 18.030249906975232 2 0 -1
719 0 1 0 2.5785863138105363 23.302711496676928 17.065766375903806 5 1 0
1429 0 2 0 2.982726801820175 25.07737219856036 21.876069946279948 3 2 1
1431 0 1 0 3.1960242321623937 25.570558038842915 22.727478513201163 3 2 2
1247 0 1 0 1.872614551851144 23.386506727999578 21.999207667294634 2 -1 -2
1430 0 1 0 3.4797229342842417 25.58741323954309 21.223726917254332 3 2 2
194 0 1 0 1.3607118707627492 25.849656722005996 21.40901282155831 1 0 0
1290 0 1 0 5.790526093940188 23.182265125694425 20.48220699216262 5 0 0
534 0 1 0 6.661876583931225 23.42053131710917 23.4392967145749 3 2 -1
532 0 2 0 5.788138646696652 23.36419258220064 22.93262228149973 3 2 -1
1205 0 1 0 4.992490730585742 25.11793620890431 23.649604630090035 4 -1 -2
1204 0 2 0 4.661416164776333 25.9481173820178 24.050986430168667 4 -1 -2
1265 0 1 0 3.6479692673349278 25.63569095783842 25.78813967030625 1 1 0
533 0 1 0 5.251693780449677 22.9381930773494 23.630228595048944 3 2 -1
993 0 1 0 11.391098084787684 1.3916902498310573 3.3165068840125693 2 2 1
510 0 1 0 13.266576060265235 1.4529816008383551 1.1815418103972437 2 2 1
992 0 1 0 10.923058419088047 1.3816593847619472 1.8515134583463257 2 2 1
601 0 2 0 11.035046150918687 3.3958442334643597 3.954781682311666 1 4 2
602 0 1 0 10.065110633497676 3.319411460283575 3.833230427414602 1 4 2
7 0 2 0 8.182754493352233 2.3052602434641285 5.117727998194494 4 3 1
150 0 1 0 11.042896606086341 1.1901346678174431 6.5565098719624 2 1 2
8 0 1 0 7.770014757223979 2.969161643251435 5.683676203767477 4 3 1
149 0 1 0 11.523467950646435 2.5891990311142057 6.056968838630085 2 1 2
9 0 1 0 7.420784689614229 1.8457210194067355 4.740678194618088 4 3 1
148 0 2 0 11.751828026692204 1.8275443025173688 6.625347908036232 2 1 2
26 0 1 0 9.160204167812482 3.419246487702219 8.75093805822541 2 1 2
986 0 1 0 11.189281396141046 2.042524577214196 8.22166049457163 3 2 2
985 0 2 0 10.659393192770656 2.1938668031492132 9.022199880798699 3 2 2
987 0 1 0 10.920262998698597 1.4808823109301927 9.619354896856354 3 2 2
540 0 1 0 12.01544072676845 3.3354430435854283 11.66120240625347 2 1 1
439 0 2 0 10.436452878632894 0.9950427475325627 13.303842140116776 2 3 2
539 0 1 0 11.176674407020114 3.295948740496687 10.389010999684142 2 1 1
538 0 2 0 11.499009569275339 3.91617390025224 11.115550102907562 2 1 1
273 0 1 0 9.401906750560796 2.5201602444209192 15.443082722207421 4 2 0