LAMMPS (4 Feb 2025)
OMP_NUM_THREADS environment is not set. Defaulting to 1 thread. (src/comm.cpp:99)
  using 1 OpenMP thread(s) per MPI task
# LAMMPS script for running NVT simulation

units       metal
dimension   3
boundary    p p p
atom_style  full
atom_modify map yes

newton      on

read_data   ../start.lammps-data
Reading data file ...
  orthogonal box = (0 0 0) to (154.008 148.2 151.07609)
  16 by 8 by 12 MPI processor grid
  reading atoms ...
  20640 atoms
  reading velocities ...
  20640 velocities
Finding 1-2 1-3 1-4 neighbors ...
  special bond factors lj:    0        0        0       
  special bond factors coul:  0        0        0       
     0 = max # of 1-2 neighbors
     0 = max # of 1-3 neighbors
     0 = max # of 1-4 neighbors
     1 = max # of special neighbors
  special bonds CPU = 5.458 seconds
  read_data CPU = 5.837 seconds

pair_style  symmetrix/mace
pair_coeff  * * ../../../../00-common/models/ch2o-dens-inv_swa-1-6-8.json C H O
Loading MACE model from '../../../../00-common/models/ch2o-dens-inv_swa-1-6-8.json' ... success
  mapping LAMMPS type 1 (C) to MACE type 1
  mapping LAMMPS type 2 (H) to MACE type 0
  mapping LAMMPS type 3 (O) to MACE type 2

variable t equal step

group graphene type 1
8640 atoms in group graphene
group H2O type 2 3
12000 atoms in group H2O

thermo 1000

######### NVT equilibration for 50 ps #############

dump DUMP1 all atom 100 nvt_equi.lammpstrj
timestep 0.001
fix NVT1 graphene nvt temp 300 300 0.1
fix NVT2 H2O nvt temp 300 300 0.1
run 50000
Neighbor list info ...
  update: every = 1 steps, delay = 0 steps, check = yes
  max neighbors/atom: 2000, page size: 100000
  master list distance cutoff = 8
  ghost atom cutoff = 8
  binsize = 4, bins = 39 38 38
  1 neighbor lists, perpetual/occasional/extra = 1 0 0
  (1) pair symmetrix/mace, perpetual
      attributes: full, newton on
      pair build: full/bin
      stencil: full/bin/3d
      bin: standard
Per MPI rank memory allocation (min/avg/max) = 5.957 | 6.291 | 8.335 Mbytes
   Step          Temp          E_pair         E_mol          TotEng         Press     
         0   297.30128     -3218697.9      0             -3217904.8     -85.260434    
      1000   302.48271     -3218822.2      0             -3218015.2     -27.950491    
      2000   300.44792     -3218818        0             -3218016.5     -15.984566    
      3000   299.17287     -3218826.9      0             -3218028.7     -28.848982    
      4000   298.84013     -3218843        0             -3218045.7     -11.517199    
      5000   299.24165     -3218840.7      0             -3218042.4     -26.622146    
      6000   300.96058     -3218831.3      0             -3218028.4     -39.834252    
      7000   301.27414     -3218842.6      0             -3218038.9     -25.253889    
      8000   299.2998      -3218849.7      0             -3218051.2     -47.672691    
      9000   298.83633     -3218840.7      0             -3218043.4      38.271545    
     10000   300.43621     -3218843.6      0             -3218042.1     -15.526254    
     11000   296.37501     -3218851.8      0             -3218061.1      9.1627491    
     12000   299.64104     -3218843.5      0             -3218044.1      17.341847    
     13000   298.8251      -3218851.9      0             -3218054.7      18.743465    
     14000   301.93229     -3218840.5      0             -3218035        37.364175    
     15000   301.19071     -3218842        0             -3218038.5      24.006201    
     16000   301.17524     -3218846.8      0             -3218043.3      5.240876     
     17000   297.63939     -3218853.1      0             -3218059       -3.0652937    
     18000   301.4973      -3218857        0             -3218052.7      1.7248989    
     19000   300.87265     -3218853.6      0             -3218050.9     -58.067807    
     20000   298.74622     -3218841.3      0             -3218044.3      10.432864    
     21000   299.48307     -3218850.5      0             -3218051.5     -2.9887029    
     22000   299.32753     -3218844.5      0             -3218045.9     -27.799753    
     23000   299.11335     -3218851.8      0             -3218053.8     -59.205338    
     24000   299.78261     -3218846.2      0             -3218046.4     -23.726794    
     25000   299.39553     -3218854.3      0             -3218055.6     -48.500293    
     26000   299.5616      -3218855.8      0             -3218056.7     -31.174022    
     27000   299.57024     -3218842.3      0             -3218043.1     -20.874283    
     28000   300.1         -3218849.6      0             -3218049       -17.933006    
     29000   300.51358     -3218848.9      0             -3218047.2     -31.632609    
     30000   298.27        -3218847.5      0             -3218051.8     -63.860028    
     31000   297.35943     -3218844.3      0             -3218051        12.517849    
     32000   299.85244     -3218845.4      0             -3218045.4     -24.176674    
     33000   301.56215     -3218856.9      0             -3218052.4      5.1697174    
     34000   298.33285     -3218840.2      0             -3218044.3     -15.350405    
     35000   298.81635     -3218858.6      0             -3218061.4     -55.411451    
     36000   299.04054     -3218843.3      0             -3218045.5     -39.265523    
     37000   300.54578     -3218842.5      0             -3218040.7      14.715537    
     38000   298.38817     -3218848.2      0             -3218052.2     -26.017023    
     39000   302.53379     -3218847.3      0             -3218040.2     -17.604089    
     40000   296.37979     -3218847.2      0             -3218056.6     -17.940548    
     41000   299.85408     -3218843.4      0             -3218043.4     -23.930397    
     42000   300.28294     -3218841.3      0             -3218040.2     -83.30296     
     43000   302.56589     -3218840.2      0             -3218033        5.0666385    
     44000   299.19349     -3218854.6      0             -3218056.4     -28.726457    
     45000   301.32422     -3218848.4      0             -3218044.6     -6.5289095    
     46000   297.02995     -3218850.3      0             -3218057.9     -75.113169    
     47000   298.96666     -3218860.1      0             -3218062.5     -4.5650535    
     48000   297.96351     -3218843.3      0             -3218048.4     -5.9351526    
     49000   300.53354     -3218848        0             -3218046.3     -5.9144038    
     50000   300.17255     -3218850.7      0             -3218049.9      6.6461729    
Loop time of 47083.1 on 1536 procs for 50000 steps with 20640 atoms

Performance: 0.092 ns/day, 261.573 hours/ns, 1.062 timesteps/s, 21.919 katom-step/s
100.0% CPU use with 1536 MPI tasks x 1 OpenMP threads

MPI task timing breakdown:
Section |  min time  |  avg time  |  max time  |%varavg| %total
---------------------------------------------------------------
Pair    | 0.17615    | 6285.4     | 45940      |15166.8 | 13.35
Bond    | 0.0031887  | 0.0066873  | 0.056002   |   7.5 |  0.00
Neigh   | 0.012359   | 0.26556    | 5.5059     | 153.2 |  0.00
Comm    | 0.58246    | 2040.1     | 22469      |10455.7 |  4.33
Output  | 2.4695     | 6.9163     | 11.525     | 104.7 |  0.01
Modify  | 164.26     | 38743      | 47068      |7825.1 | 82.29
Other   |            | 7.775      |            |       |  0.02

Nlocal:        13.4375 ave         237 max           0 min
Histogram: 1356 4 49 48 10 12 11 11 21 14
Nghost:        152.661 ave        2210 max           0 min
Histogram: 1116 268 59 23 22 14 19 5 5 5
Neighs:              0 ave           0 max           0 min
Histogram: 1536 0 0 0 0 0 0 0 0 0
FullNghs:      1998.02 ave       51241 max           0 min
Histogram: 1395 55 14 10 12 5 16 12 8 9

Total # of neighbors = 3068962
Ave neighs/atom = 148.69002
Ave special neighs/atom = 0
Neighbor list builds = 2633
Dangerous builds = 0

write_restart nvt_equi.restart.*
System init for write_restart ...
write_data nvt_equi_final.lammps-data
System init for write_data ...

Total wall time: 13:05:18
