LAMMPS (4 Feb 2025)
OMP_NUM_THREADS environment is not set. Defaulting to 1 thread. (src/comm.cpp:99)
  using 1 OpenMP thread(s) per MPI task
# LAMMPS script for continuing NVT simulation

atom_modify map yes
newton      on

read_restart nvt_prod.restart.880000
Reading restart file ...
  restart file = 4 Feb 2025, LAMMPS = 4 Feb 2025
  restoring atom style full from restart
  orthogonal box = (0 0 0) to (153.77699 147.97198 151.07317)
  16 by 8 by 8 MPI processor grid
  pair style symmetrix/mace stores no restart info
  11640 atoms
Finding 1-2 1-3 1-4 neighbors ...
  special bond factors lj:    0        0        0       
  special bond factors coul:  0        0        0       
     0 = max # of 1-2 neighbors
     0 = max # of 1-3 neighbors
     0 = max # of 1-4 neighbors
     1 = max # of special neighbors
  special bonds CPU = 4.296 seconds
  read_restart CPU = 4.485 seconds

pair_style  symmetrix/mace
pair_coeff  * * ../../../00-common/models/ch2o-dens-inv_swa-1-6-8.json C H O
Loading MACE model from '../../../00-common/models/ch2o-dens-inv_swa-1-6-8.json' ... success
  mapping LAMMPS type 1 (C) to MACE type 1
  mapping LAMMPS type 2 (H) to MACE type 0
  mapping LAMMPS type 3 (O) to MACE type 2

group graphene type 1
8640 atoms in group graphene
group H2O type 2 3
3000 atoms in group H2O

thermo 1000

######### NVT production for 80 ps #############

dump DUMP1 all atom 100 nvt_prod_11.lammpstrj
timestep 0.001
fix NVT1 graphene nvt temp 300 300 0.1
Resetting global fix info from restart file:
  fix style: nvt, fix ID: NVT1
fix NVT2 H2O nvt temp 300 300 0.1
Resetting global fix info from restart file:
  fix style: nvt, fix ID: NVT2
run 80000
All restart file global fix info was re-assigned
Neighbor list info ...
  update: every = 1 steps, delay = 0 steps, check = yes
  max neighbors/atom: 2000, page size: 100000
  master list distance cutoff = 8
  ghost atom cutoff = 8
  binsize = 4, bins = 39 37 38
  1 neighbor lists, perpetual/occasional/extra = 1 0 0
  (1) pair symmetrix/mace, perpetual
      attributes: full, newton on
      pair build: full/bin
      stencil: full/bin/3d
      bin: standard
Per MPI rank memory allocation (min/avg/max) = 5.921 | 6.2 | 8.152 Mbytes
   Step          Temp          E_pair         E_mol          TotEng         Press     
    880000   298.24298     -1809924.4      0             -1809475.7      104.3348     
    881000   300.08843     -1809932.9      0             -1809481.4      134.43147    
    882000   300.88563     -1809919.7      0             -1809467        132.71537    
    883000   300.30587     -1809923.3      0             -1809471.5      88.415877    
    884000   299.93713     -1809922.9      0             -1809471.6      79.576237    
    885000   298.95272     -1809929.6      0             -1809479.8      95.382782    
    886000   304.64008     -1809923.1      0             -1809464.8      110.59528    
    887000   302.11979     -1809928.3      0             -1809473.8      83.151318    
    888000   302.77296     -1809924.2      0             -1809468.7      88.971959    
    889000   297.95776     -1809924.4      0             -1809476.1      51.430324    
    890000   301.56409     -1809924.2      0             -1809470.5      66.950738    
    891000   302.21814     -1809931.5      0             -1809476.9      91.463718    
    892000   298.13212     -1809926.7      0             -1809478.2      103.49837    
    893000   303.13435     -1809925.2      0             -1809469.1      78.767754    
    894000   300.13777     -1809925.1      0             -1809473.6      111.52434    
    895000   301.27731     -1809930.2      0             -1809477        57.350287    
    896000   302.47887     -1809928.8      0             -1809473.7      112.17683    
    897000   300.75638     -1809926.5      0             -1809474        116.59079    
    898000   298.08937     -1809924.5      0             -1809476.1      103.03594    
    899000   299.34504     -1809927.9      0             -1809477.6      150.24473    
    900000   300.62647     -1809925.4      0             -1809473.1      55.402808    
    901000   299.69486     -1809923.9      0             -1809473        27.423736    
    902000   298.22307     -1809930.1      0             -1809481.5      48.018628    
    903000   302.52972     -1809927.8      0             -1809472.7      62.52728     
    904000   299.70084     -1809922.6      0             -1809471.7      96.131252    
    905000   297.22138     -1809924.9      0             -1809477.7      99.155087    
    906000   299.2355      -1809922.3      0             -1809472.1      94.087742    
    907000   297.67118     -1809922.2      0             -1809474.4      121.67545    
    908000   296.98765     -1809924.8      0             -1809478        123.78227    
    909000   301.51472     -1809927.6      0             -1809474        81.378665    
    910000   301.32711     -1809921.6      0             -1809468.3      65.792983    
    911000   297.65037     -1809926.8      0             -1809479        73.787311    
    912000   297.17995     -1809932.7      0             -1809485.6      54.033801    
    913000   298.72607     -1809929        0             -1809479.6      57.87668     
    914000   298.54204     -1809925.1      0             -1809476        79.530477    
    915000   297.94012     -1809926.2      0             -1809478        76.280563    
    916000   299.38035     -1809931.4      0             -1809481        72.271213    
    917000   301.60862     -1809931.3      0             -1809477.5      99.191968    
    918000   299.19314     -1809925.6      0             -1809475.5      99.746091    
    919000   301.98187     -1809920.9      0             -1809466.6      91.672645    
    920000   301.23301     -1809928.3      0             -1809475.1      72.898297    
    921000   298.24068     -1809924        0             -1809475.3      46.194545    
    922000   301.37517     -1809927.8      0             -1809474.4      96.082753    
    923000   301.75793     -1809930.7      0             -1809476.7      89.889468    
    924000   303.24567     -1809923.2      0             -1809466.9      76.233719    
    925000   299.84666     -1809924.4      0             -1809473.2      61.645847    
    926000   300.5377      -1809928.4      0             -1809476.3      51.351182    
    927000   300.57666     -1809924.1      0             -1809471.9      84.800353    
    928000   298.68933     -1809926.7      0             -1809477.3      78.888436    
    929000   297.31665     -1809924        0             -1809476.7      143.66838    
    930000   305.19066     -1809931        0             -1809471.9      98.339397    
    931000   298.85971     -1809929.3      0             -1809479.7      128.32382    
    932000   301.09417     -1809924.1      0             -1809471.1      80.488512    
    933000   302.10968     -1809915.5      0             -1809461        50.213782    
    934000   298.21825     -1809924.2      0             -1809475.5      28.051421    
    935000   300.11381     -1809928.6      0             -1809477.1      42.41933     
    936000   301.98193     -1809915.9      0             -1809461.6      72.546323    
    937000   299.05868     -1809924.1      0             -1809474.2      128.54526    
    938000   296.17344     -1809922.5      0             -1809476.9      115.54674    
    939000   304.62501     -1809923.5      0             -1809465.2      116.14117    
    940000   298.52712     -1809924.6      0             -1809475.5      119.43555    
    941000   299.91236     -1809925.1      0             -1809473.9      70.926301    
    942000   301.64436     -1809925.5      0             -1809471.7      65.994055    
    943000   300.41817     -1809921.4      0             -1809469.4      40.733842    
    944000   302.20898     -1809917.8      0             -1809463.2      56.968972    
    945000   298.06507     -1809923.5      0             -1809475        91.56719     
    946000   298.1498      -1809924.6      0             -1809476        106.91723    
    947000   301.57211     -1809928.5      0             -1809474.8      108.24221    
    948000   297.34461     -1809932.3      0             -1809484.9      68.732895    
    949000   303.52122     -1809923.2      0             -1809466.5      34.39829     
    950000   301.985       -1809924.3      0             -1809469.9      48.356861    
    951000   298.41609     -1809926.6      0             -1809477.6      80.549686    
    952000   301.46066     -1809921.8      0             -1809468.2      85.499664    
    953000   299.17341     -1809921.1      0             -1809471        88.211596    
    954000   297.6998      -1809925.1      0             -1809477.3      62.956984    
    955000   298.71548     -1809918.6      0             -1809469.2      102.73561    
    956000   302.87969     -1809924        0             -1809468.4      109.2527     
    957000   296.91048     -1809926        0             -1809479.4      109.28003    
    958000   296.73815     -1809923.4      0             -1809476.9      64.638311    
    959000   300.72227     -1809925.6      0             -1809473.1      79.593905    
    960000   300.66527     -1809926.2      0             -1809473.9      32.387943    
Loop time of 57495.6 on 1024 procs for 80000 steps with 11640 atoms

Performance: 0.120 ns/day, 199.638 hours/ns, 1.391 timesteps/s, 16.196 katom-step/s
100.0% CPU use with 1024 MPI tasks x 1 OpenMP threads

MPI task timing breakdown:
Section |  min time  |  avg time  |  max time  |%varavg| %total
---------------------------------------------------------------
Pair    | 1469.9     | 5522       | 16201      |4915.7 |  9.60
Bond    | 0.0052543  | 0.0079244  | 0.014252   |   1.6 |  0.00
Neigh   | 0.065236   | 0.13958    | 0.83765    |  37.2 |  0.00
Comm    | 26.253     | 1935.7     | 7435.8     |2970.2 |  3.37
Output  | 0.57183    | 5.3847     | 10.43      | 121.8 |  0.01
Modify  | 39010      | 50025      | 55958      |1973.0 | 87.01
Other   |            | 7.511      |            |       |  0.01

Nlocal:        11.3672 ave         363 max           0 min
Histogram: 894 99 16 2 2 1 3 2 2 3
Nghost:          97.96 ave        1483 max           0 min
Histogram: 755 103 124 18 10 7 3 1 1 2
Neighs:              0 ave           0 max           0 min
Histogram: 1024 0 0 0 0 0 0 0 0 0
FullNghs:      1226.63 ave       70904 max           0 min
Histogram: 1006 4 2 1 2 2 3 0 2 2

Total # of neighbors = 1256068
Ave neighs/atom = 107.90962
Ave special neighs/atom = 0
Neighbor list builds = 3655
Dangerous builds = 0

write_restart nvt_prod.restart.*
System init for write_restart ...
write_data nvt_prod_final.lammps-data
System init for write_data ...

Total wall time: 15:58:38
