LAMMPS data file via write_data, version 4 Feb 2025, timestep = 960000, units = metal

11640 atoms
3 atom types

0 153.776988 xlo xhi
0 147.97197569494978 ylo yhi
0 151.07316997686289 zlo zhi

Masses

1 12.01099999691024
2 1.007999999740698
3 15.99899999588435

Atoms # full

4914 0 1 0 3.5144488808913428 2.029584366607309 136.747851477489 8 -1 15
4919 0 1 0 4.239453965944809 3.2315605742796873 136.771642354587 8 -1 15
4915 0 1 0 4.210795865893963 0.7523999070933848 136.6761831624237 8 -1 15
4920 0 1 0 5.661078649477417 3.257811783924175 136.75528929782524 8 -1 15
4913 0 1 0 2.0927715721386937 1.9848764664609722 136.82079358669333 8 -1 15
4916 0 1 0 5.652994134816186 0.7487916840163502 136.6990336682364 8 -1 15
4676 0 1 0 1.379909582283901 0.7414423399748924 136.88086373012095 8 -1 15
4680 0 1 0 1.4043955044473573 3.2149409619336824 137.05461838301642 8 -1 15
5153 0 1 0 6.377072169245532 1.9777219611713848 136.7525249120999 8 -1 15
5159 0 1 0 8.557196366907828 3.212199558774046 136.83750779730568 8 -1 15
5174 0 1 0 7.846237754457092 14.288259708944572 137.43862792914317 8 -1 15
5154 0 1 0 7.818424717615769 1.9744269780186032 136.78499703740292 8 -1 15
5155 0 1 0 8.50197723900097 0.7277526304430866 136.61313495900757 8 -1 15
5173 0 1 0 6.41327602415876 14.268570293101469 137.45860987386692 8 -1 15
4923 0 1 0 4.25703605587875 5.667544098814959 137.17248440436887 8 -1 15
4918 0 1 0 3.560592840499294 4.470744116582207 137.05771219620652 8 -1 15
4922 0 1 0 3.602562944665534 6.905405751008247 137.31741441757148 8 -1 15
4927 0 1 0 4.303079443683096 8.16628514726064 137.35943691359472 8 -1 15
4924 0 1 0 5.702253382793341 5.707064142346556 137.06086479310184 8 -1 15
4928 0 1 0 5.7243474569160115 8.156324192862249 137.21548789541956 8 -1 15
4917 0 1 0 2.108834624269915 4.392439393486059 137.1221297074909 8 -1 15
4921 0 1 0 2.1537381328399596 6.931805748122421 137.39991783627946 8 -1 15
4684 0 1 0 1.39612981476084 5.691508278970443 137.37175221119986 8 -1 15
4688 0 1 0 1.4239216286560703 8.164710844240973 137.55080601841632 8 -1 15
5161 0 1 0 6.422615812049417 6.925344861478852 137.07553721749235 8 -1 15
5157 0 1 0 6.373306069773561 4.45893207282578 136.95219534453022 8 -1 15
5167 0 1 0 8.622750752284492 8.166648398388554 137.0989211967798 8 -1 15
5162 0 1 0 7.831594431793125 6.923284124239164 136.98011788848433 8 -1 15
5158 0 1 0 7.864745427365462 4.455801126949049 136.9434605380277 8 -1 15
5163 0 1 0 8.542031677163804 5.719238217924945 136.98320827654936 8 -1 15
5177 0 1 0 6.434958615790594 16.7750361818273 137.70068283309485 8 -1 15
4704 0 1 0 1.5289279142810948 18.021716891542358 137.9391062997434 8 -1 15
5178 0 1 0 7.8686443692625625 16.792462585938594 137.66876652392807 8 -1 15
4692 0 1 0 1.447977339172188 10.624749902265131 137.59431415996482 8 -1 15
4932 0 1 0 5.7412561282931645 10.640539482838268 137.39496156662366 8 -1 15
4935 0 1 0 4.2863916667221025 13.117160863931012 137.667981691519 8 -1 15
4926 0 1 0 3.5733476963903623 9.386509420142893 137.52485323758916 8 -1 15
4930 0 1 0 3.574629903218291 11.85974157418289 137.62496705469593 8 -1 15
4936 0 1 0 5.700831163541945 13.084771143664442 137.47210922836223 8 -1 15
4931 0 1 0 4.277573596224753 10.6171055519424 137.51827044145745 8 -1 15
4925 0 1 0 2.123922237916984 9.39329460176409 137.4689317133126 8 -1 15
4929 0 1 0 2.142785281873937 11.86253625449469 137.65253115503484 8 -1 15
4696 0 1 0 1.449811208206371 13.062002932621187 137.70335790687827 8 -1 15
5165 0 1 0 6.443108434200256 9.392956210010878 137.32765354894363 8 -1 15
5169 0 1 0 6.45009156687089 11.819613654258259 137.3672519045523 8 -1 15
5171 0 1 0 8.590768913597008 10.618417702333282 137.12995300981905 8 -1 15
5166 0 1 0 7.891598492477868 9.416378909465902 137.1653314719521 8 -1 15
5170 0 1 0 7.8724670059249 11.838994204195812 137.24436075173801 8 -1 15
5179 0 1 0 8.577535326167657 15.508805570330132 137.49530539562048 8 -1 15
5175 0 1 0 8.546094816990939 13.11218616342173 137.24963765068475 8 -1 15
5183 0 1 0 8.64468052117422 17.997705544806948 137.73594729202964 8 -1 15
4700 0 1 0 1.462619693043944 15.547962896383693 137.88707787660786 8 -1 15
4938 0 1 0 3.6022154655732255 16.78907307606476 137.76355237952933 8 -1 15
4934 0 1 0 3.567431510022583 14.370844884781675 137.70562948895173 8 -1 15
4939 0 1 0 4.324482888752357 15.571989934576896 137.6460251463872 8 -1 15
4940 0 1 0 5.7383620407880445 15.537721185005374 137.61705507918583 8 -1 15
4943 0 1 0 4.306333907111648 18.03497137369883 137.87549818213074 8 -1 15
4944 0 1 0 5.7339445965578495 18.005222831298095 137.82768485958357 8 -1 15
4937 0 1 0 2.2064270446738794 16.794840365247097 137.92178907812678 8 -1 15
4933 0 1 0 2.143394640582189 14.327931932064093 137.70125468699172 8 -1 15
4695 0 1 0 0.061255272034965655 13.074507528594522 137.7765227705967 8 -1 15
4679 0 1 0 0.009262786180525251 3.2002403051931743 137.3656504560696 8 -1 15
4703 0 1 0 0.059654633960104196 17.99572371703579 138.01480779360296 8 -1 15
4699 0 1 0 0.03220676142665063 15.531597989824741 137.95261046807798 8 -1 15
4691 0 1 0 0.004513966466618058 10.576779773886203 137.69711381718238 8 -1 15
4683 0 1 0 0.007325336866358612 5.667307468551054 137.5695194222456 8 -1 15
4942 0 1 0 3.637666828383102 19.275578392600806 137.9659275128355 8 -1 15
4947 0 1 0 4.406732797245163 20.47847033699429 138.16466530356732 8 -1 15
4946 0 1 0 3.655199375002136 21.708800420511526 138.2582701598484 8 -1 15
4948 0 1 0 5.805730825196705 20.491654876107805 138.1530427227459 8 -1 15
4941 0 1 0 2.248908787484451 19.254512781588627 138.03187881304632 8 -1 15
4945 0 1 0 2.2565362451292024 21.69651316198535 138.27257346157205 8 -1 15
4708 0 1 0 1.5339742904977454 20.458580499900755 138.21074151453894 8 -1 15
5181 0 1 0 6.488178663281173 19.228526502788338 137.9489366298419 8 -1 15
5185 0 1 0 6.495413101346667 21.687460164209554 138.1991824284732 8 -1 15
5187 0 1 0 8.58896570943216 20.445028426082153 138.01637554632458 8 -1 15
5182 0 1 0 7.92124598057995 19.251187441070773 137.89838277704717 8 -1 15
5186 0 1 0 7.9186005621751825 21.653198008814165 138.09580816894345 8 -1 15
5210 0 1 0 7.959541109136485 36.56483675632364 138.0552475480824 8 -1 15
5191 0 1 0 8.645904128283462 22.886739332454173 138.1814822223502 8 -1 15
4951 0 1 0 4.405639395245848 22.919931336879 138.35812078302968 8 -1 15
4956 0 1 0 5.790576322344457 25.398121342519477 138.3878607408354 8 -1 15
4950 0 1 0 3.6888955712621954 24.13114548547255 138.54655882199268 8 -1 15
4954 0 1 0 3.7039474225141715 26.62202700357087 138.5534675162737 8 -1 15
4955 0 1 0 4.361214264693337 25.350897551616626 138.56322938869428 8 -1 15
4952 0 1 0 5.792074387656216 22.924896750911735 138.31879714687892 8 -1 15
4953 0 1 0 2.287678687783829 26.64044257221208 138.62606893691503 8 -1 15
4949 0 1 0 2.236402076654909 24.1740796879318 138.45678828957386 8 -1 15
4716 0 1 0 1.5805811332925455 25.38575982482853 138.69096896981344 8 -1 15
4712 0 1 0 1.5583663983600033 22.921230438945816 138.38400117330357 8 -1 15
5193 0 1 0 6.520271848878791 26.638065567094632 138.42793662427016 8 -1 15
5189 0 1 0 6.480387638060696 24.170237914701712 138.38711890977228 8 -1 15
5209 0 1 0 6.495387576456777 36.58224705931282 138.11555493076438 8 -1 15
5190 0 1 0 7.927580963625123 24.135799216701525 138.35667543730995 8 -1 15
5194 0 1 0 7.925875393871693 26.664945784526825 138.26577564753066 8 -1 15
5195 0 1 0 8.60313816106939 25.40481599555599 138.25478702222074 8 -1 15
5206 0 1 0 7.956329809166389 34.096827789226126 138.29874368655385 8 -1 15
4724 0 1 0 1.4615625990954908 30.294774931897305 138.51106733510554 8 -1 15
4963 0 1 0 4.314553611127768 30.39004547554483 138.4700632614216 8 -1 15
4959 0 1 0 4.387921964114128 27.8788115326696 138.5347643910667 8 -1 15
4958 0 1 0 3.65994401336268 29.136408165199423 138.5974121014176 8 -1 15
4962 0 1 0 3.613261610489251 31.600765205547606 138.35297986586755 8 -1 15
4960 0 1 0 5.816756995647464 27.85030916363341 138.46828634525127 8 -1 15
4964 0 1 0 5.72744425617921 30.391822345361387 138.39978706039344 8 -1 15
4961 0 1 0 2.1670599601519753 31.535857043463704 138.33453254256275 8 -1 15
4957 0 1 0 2.227288544427151 29.0406301745962 138.62555210269747 8 -1 15
4720 0 1 0 1.505204046539137 27.843126856380945 138.61247301659557 8 -1 15
5197 0 1 0 6.467566397396557 29.113593071987395 138.35921409551224 8 -1 15
5201 0 1 0 6.473114929181722 31.599685438663936 138.37681374594453 8 -1 15
5202 0 1 0 7.913442086804692 31.615957678454723 138.2478944251542 8 -1 15
5203 0 1 0 8.69164470941974 30.380702003073374 138.21170884868664 8 -1 15
5207 0 1 0 8.658226178047805 32.86288771848216 138.30888065293314 8 -1 15
5211 0 1 0 8.659462062438188 35.33656723578129 138.2618286655082 8 -1 15
5198 0 1 0 7.919039744919064 29.137174620133194 138.22895169390807 8 -1 15
5199 0 1 0 8.64997669571579 27.907726085143597 138.1700077193104 8 -1 15
4728 0 1 0 1.5298391525660338 32.81601805166857 138.2775792261974 8 -1 15
4969 0 1 0 2.211549304232046 36.48979564867377 137.96515025551696 8 -1 15
4732 0 1 0 1.4960138968479582 35.28422911156824 138.10897206894091 8 -1 15
4971 0 1 0 4.358607930591587 35.32449515749846 138.0732478514196 8 -1 15
4972 0 1 0 5.804633879393045 35.36081770059547 138.15102188529661 8 -1 15
4967 0 1 0 4.345669583353339 32.86105973963054 138.29191701789566 8 -1 15
4966 0 1 0 3.6590478747845676 34.050712991827396 138.16556764475393 8 -1 15
4968 0 1 0 5.796223443396855 32.894614650110675 138.28909570790685 8 -1 15
4965 0 1 0 2.2184102929066536 34.06672015001576 138.16933053307125 8 -1 15
4970 0 1 0 3.5995389007648457 36.55271574779698 137.97232704201627 8 -1 15
5205 0 1 0 6.540797574651645 34.12823516269005 138.24372441155114 8 -1 15
4723 0 1 0 0.06397018952265111 30.357191842024122 138.55907560812412 8 -1 15
4719 0 1 0 0.08209159918106299 27.87013006025422 138.6797943975744 8 -1 15
4715 0 1 0 0.10051740545641617 25.39276841098713 138.77679930723198 8 -1 15
4731 0 1 0 0.09395728422487247 35.26164049019157 138.07476824055294 8 -1 15
4707 0 1 0 0.10355965830023078 20.452804114972977 138.2940648045115 8 -1 15
4727 0 1 0 0.12449986991483385 32.83456326461662 138.27770231309725 8 -1 15
4711 0 1 0 0.1131552962041364 22.90899978989165 138.55033748152727 8 -1 15
4974 0 1 0 3.6279628598637137 38.99380609386507 137.74917782608608 8 -1 15
4976 0 1 0 5.802904043138139 37.79001501543952 137.9854986894229 8 -1 15
4979 0 1 0 4.327398550139354 40.24231539002747 137.60847293042744 8 -1 15
4980 0 1 0 5.7776880279620295 40.244965407976814 137.63849350416243 8 -1 15
4975 0 1 0 4.360197194579459 37.79861217220479 137.98014491755765 8 -1 15
4973 0 1 0 2.2319126856496223 38.9530134228478 137.7146952363136 8 -1 15
4740 0 1 0 1.5171655246938394 40.13776115160173 137.505594595116 8 -1 15
4736 0 1 0 1.4755668342249715 37.71000187460852 137.74203542067178 8 -1 15
5213 0 1 0 6.5144617618758245 39.02680705819965 137.7921135994251 8 -1 15
5238 0 1 0 7.916782605684455 53.728349250753844 135.8824909436063 8 -1 15
5215 0 1 0 8.667033623616325 37.82360206453722 137.83915671845065 8 -1 15
5219 0 1 0 8.649150292223133 40.3559048533806 137.73299637595977 8 -1 15
5214 0 1 0 7.958598921121244 39.066238484364284 137.67299963186892 8 -1 15
5243 0 1 0 8.588940274225884 54.92498223946007 135.70349054952726 8 -1 15
4978 0 1 0 3.5729028105106884 41.44964353336897 137.4209702507934 8 -1 15
4983 0 1 0 4.316415868085959 42.711559411861515 137.2542156517827 8 -1 15
4982 0 1 0 3.593715054481527 43.90170009284109 137.04145628280097 8 -1 15
4984 0 1 0 5.776377198149966 42.700021510859074 137.28358732541741 8 -1 15
4987 0 1 0 4.385365579481063 45.14210314773515 136.82157233153325 8 -1 15
4988 0 1 0 5.833286909402585 45.13688345817077 136.86051526635453 8 -1 15
4977 0 1 0 2.174773323063188 41.40570251112594 137.39483929617856 8 -1 15
4981 0 1 0 2.1725325592697198 43.859241574746484 136.9162984483548 8 -1 15
4744 0 1 0 1.4687197205131726 42.60841387105795 137.0979659908465 8 -1 15
4748 0 1 0 1.4591708220445754 45.060767999142186 136.56266244981873 8 -1 15
5217 0 1 0 6.471674472811569 41.50348170353652 137.4846524282152 8 -1 15
5221 0 1 0 6.515839615575814 43.90504530907057 137.05991483718347 8 -1 15
5237 0 1 0 6.501695934631178 53.73802622865268 135.9310544490694 8 -1 15
5218 0 1 0 7.929229817513745 41.53352786730516 137.51651318962524 8 -1 15
5223 0 1 0 8.667919098840686 42.72306380799141 137.35652295955174 8 -1 15
5222 0 1 0 7.9208016688995135 43.921335409330396 137.15531599884983 8 -1 15
5234 0 1 0 7.937611190552567 51.33808164053515 136.33660533188953 8 -1 15
5227 0 1 0 8.619405392766899 45.19590881687159 136.942426914041 8 -1 15
4989 0 1 0 2.189396582060512 48.78695710196989 136.26416003544387 8 -1 15
4990 0 1 0 3.638582845559527 48.847253079021606 136.42452668126163 8 -1 15
4752 0 1 0 1.4824393898378265 47.54131273886944 136.29535770823145 8 -1 15
4986 0 1 0 3.645719015796661 46.35989448227464 136.71630601553773 8 -1 15
4985 0 1 0 2.15451917558895 46.30907716303367 136.52767739281097 8 -1 15
4991 0 1 0 4.355393588340163 47.602029127635404 136.6496679751257 8 -1 15
4992 0 1 0 5.77643472701312 47.63022098670782 136.61021435164648 8 -1 15
4995 0 1 0 4.356844209936748 50.05182831742746 136.38522722340494 8 -1 15
4996 0 1 0 5.766943134545166 50.10068853081217 136.39261828814244 8 -1 15
4756 0 1 0 1.4769832563821028 50.02895998310058 136.1291471826454 8 -1 15
5225 0 1 0 6.478942497966883 46.384178598986196 136.72907578431912 8 -1 15
5226 0 1 0 7.915742234387955 46.38111175582467 136.718792603887 8 -1 15
5231 0 1 0 8.622200353565342 47.61752616046125 136.74126337087307 8 -1 15
5239 0 1 0 8.668481490634884 52.55688346286085 136.14042313209768 8 -1 15
5229 0 1 0 6.519782908311824 48.883669147518084 136.5449843742137 8 -1 15
5230 0 1 0 7.951254980050709 48.85447909724782 136.6793427194832 8 -1 15
5235 0 1 0 8.63665392707574 50.105991814020065 136.52711613028646 8 -1 15
5233 0 1 0 6.499268790190262 51.302100885441284 136.30682590872746 8 -1 15
4993 0 1 0 2.231977004495304 51.28289108916297 135.93472897229216 8 -1 15
4764 0 1 0 1.5073824879243112 54.89346036625798 135.15154304942604 8 -1 15
4760 0 1 0 1.5070721483190366 52.4681739571594 135.66571778963151 8 -1 15
4994 0 1 0 3.6812142944134045 51.2815836601014 136.00658865024738 8 -1 15
5000 0 1 0 5.816751418200044 52.54965182084126 136.0639872698185 8 -1 15
4999 0 1 0 4.411276852591407 52.522115687557076 135.85241838533355 8 -1 15
4998 0 1 0 3.662547008534795 53.6807823150198 135.6272197763008 8 -1 15
4997 0 1 0 2.271486083361357 53.68465034389288 135.45149581716234 8 -1 15
5004 0 1 0 5.792218079081156 54.931488222218256 135.6281963900527 8 -1 15
5003 0 1 0 4.3954512838393205 54.9351833906799 135.46500030200173 8 -1 15
4743 0 1 0 0.03752082442743878 42.54322535531416 136.98630634788466 8 -1 15
4735 0 1 0 0.07572834220444982 37.72322349486623 137.69358212934836 8 -1 15
4755 0 1 0 0.06363007289784015 50.01765884710648 136.0281202085981 8 -1 15
4751 0 1 0 0.030169655132382227 47.54787780970847 136.15026627360422 8 -1 15
4759 0 1 0 0.08179471011177467 52.463785130885945 135.50488201659684 8 -1 15
4747 0 1 0 0.06448970213978326 45.06121624352789 136.51214338703375 8 -1 15
4763 0 1 0 0.06551144457419907 54.89862118282046 135.0847172215941 8 -1 15
4739 0 1 0 0.050285990541351834 40.108742628525974 137.380416924318 8 -1 15
5002 0 1 0 3.686000685685362 56.10346405351696 135.23679227977556 8 -1 15
5001 0 1 0 2.258286720094328 56.08109287286706 134.98765712727726 8 -1 15
5008 0 1 0 5.796891920282609 57.38607396872278 135.2313510684661 8 -1 15
5007 0 1 0 4.388566542587335 57.310565660005686 135.04346114563867 8 -1 15
5006 0 1 0 3.668100773831929 58.55333986622013 134.87297531416408 8 -1 15
5005 0 1 0 2.216853812648704 58.564334082527175 134.74263451750886 8 -1 15
4768 0 1 0 1.57175037201552 57.31147301576417 134.8424915781426 8 -1 15
5242 0 1 0 7.912165775825883 56.15002965197315 135.4796844288804 8 -1 15
5241 0 1 0 6.514212232772139 56.15257447537686 135.45152330560202 8 -1 15
5247 0 1 0 8.607794367917128 57.39125687604734 135.31995015444886 8 -1 15
5032 0 1 0 5.6668244947527215 72.19580880673014 133.96239994965222 8 -1 15
5245 0 1 0 6.453506669725538 58.61555985571849 135.1464740680934 8 -1 15
5246 0 1 0 7.818404403491045 58.60275063972163 135.32027451835762 8 -1 15
5012 0 1 0 5.73949235414192 59.89319997465779 134.8458286435134 8 -1 15
5016 0 1 0 5.744885196693697 62.31165869270977 134.7538394202568 8 -1 15
5011 0 1 0 4.343356747312813 59.7836546611051 134.73277428776055 8 -1 15
5015 0 1 0 4.327251257265095 62.29609446056678 134.5247816230791 8 -1 15
5010 0 1 0 3.603458015172318 61.037265800947424 134.44078528667438 8 -1 15
4772 0 1 0 1.5479211168241667 59.77745354862872 134.49787861123858 8 -1 15
5009 0 1 0 2.2442698921285635 61.00777550399666 134.36912145597537 8 -1 15
4776 0 1 0 1.490609477248897 62.27723547274899 134.28255347001507 8 -1 15
5013 0 1 0 2.1609812333009555 63.50545901938336 134.23006148960573 8 -1 15
5014 0 1 0 3.594706795516417 63.53168762663282 134.34281817980823 8 -1 15
5251 0 1 0 8.638529332580333 59.82812074185283 135.1075343661749 8 -1 15
5266 0 1 0 7.838034045851612 71.02012536985737 133.99199664788088 8 -1 15
5249 0 1 0 6.490974013088211 61.0765244318471 134.77330925457602 8 -1 15
5250 0 1 0 7.905585421872671 61.0578874453052 134.87326142232888 8 -1 15
5253 0 1 0 6.405026308081322 63.572392303804605 134.76374917869722 8 -1 15
5255 0 1 0 8.60582583624261 62.33594763256811 135.0292743755595 8 -1 15
5270 0 1 0 7.827549550778606 73.42574648661255 133.7891391032687 8 -1 15
5254 0 1 0 7.822961067250602 63.557355730011096 134.867162723911 8 -1 15
5020 0 1 0 5.7280317043120075 64.78297648123625 134.36741956566095 8 -1 15
5019 0 1 0 4.309576449820502 64.73643840948647 134.23234798365266 8 -1 15
5271 0 1 0 8.526957360546513 72.24975669625107 133.93617187094102 8 -1 15
5259 0 1 0 8.57574018541348 64.81405899346507 134.7855970457697 8 -1 15
4792 0 1 0 1.4004258987847777 72.22941457604928 133.78085061717314 8 -1 15
5258 0 1 0 7.833093563545073 66.01879529940635 134.56974154226907 8 -1 15
5263 0 1 0 8.483747628955367 67.29517602934817 134.5403914749777 8 -1 15
5257 0 1 0 6.437068404351121 66.0382495872612 134.41546459200063 8 -1 15
4780 0 1 0 1.4275594449226687 64.76891017300254 134.13044838127024 8 -1 15
5262 0 1 0 7.832883331647546 68.53742352683636 134.29103489884073 8 -1 15
5024 0 1 0 5.684983249869509 67.27428359715509 134.41702120567354 8 -1 15
5017 0 1 0 2.156066794010404 65.97116095924413 134.04025568468705 8 -1 15
5018 0 1 0 3.576024617673489 66.02637789700756 134.19362674158555 8 -1 15
5269 0 1 0 6.3647445557101445 73.38813502783951 133.8058721945566 8 -1 15
5023 0 1 0 4.272222880160443 67.2554182903447 134.29261602233225 8 -1 15
5267 0 1 0 8.552698361556871 69.75059175365584 134.13038286304385 8 -1 15
5030 0 1 0 3.552859054206648 73.44532877307246 133.76203318935686 8 -1 15
5261 0 1 0 6.385306401530955 68.54424275429004 134.2841664367369 8 -1 15
5021 0 1 0 2.1376467574362046 68.50126404604096 134.017022276421 8 -1 15
5265 0 1 0 6.424056398963321 70.9746068040244 134.0221154034945 8 -1 15
5026 0 1 0 3.485342603527353 70.95056226498451 133.978511242864 8 -1 15
4784 0 1 0 1.4508506764982283 67.26437214489266 133.9279468227586 8 -1 15
5022 0 1 0 3.5640097074119614 68.48150541353823 134.13199226085422 8 -1 15
5028 0 1 0 5.692585766643225 69.74911908032364 134.1333574087048 8 -1 15
5027 0 1 0 4.229589219684557 69.72883947796393 134.0878335923538 8 -1 15
5029 0 1 0 2.133642555865516 73.46154020616302 133.75275994523372 8 -1 15
4788 0 1 0 1.3723885544433165 69.75710559578287 133.96807778268314 8 -1 15
5025 0 1 0 2.083646068145092 71.00331834760458 133.96852183401026 8 -1 15
5031 0 1 0 4.228790277942683 72.22047099324855 133.8913427971651 8 -1 15
4779 0 1 0 0.007451690087741984 64.77061362904065 134.08840230139816 8 -1 15
4771 0 1 0 0.11507100813402478 59.82055668122231 134.59308943920172 8 -1 15
4775 0 1 0 0.10526304387643697 62.26815926824665 134.35814248017346 8 -1 15
4767 0 1 0 0.10765294667540208 57.3189307036427 134.90198888686567 8 -1 15
4783 0 1 0 0.004637710010257883 67.2843961040748 133.9055868380922 8 -1 15
4796 0 1 0 1.4311507364471974 74.70973300353506 133.8057374635006 8 -1 15
4800 0 1 0 1.3946149122658054 77.15775489648608 133.6517030788449 8 -1 15
4806 0 1 0 3.5178310027163975 83.33286036410175 132.98591512218107 8 -2 15
5037 0 1 0 2.1239401305094954 78.36683388493532 133.43524282341252 8 -1 15
4805 0 1 0 2.1022165108149693 83.3331428949945 133.2667344497191 8 -2 15
5035 0 1 0 4.212313753696166 74.72529911599844 133.7425169464709 8 -1 15
5049 0 1 0 6.405062953001978 85.71300578131175 133.06207863105263 8 -2 15
4572 0 1 0 1.3863962310414375 84.53676978644862 133.37162205818953 8 -2 15
4564 0 1 0 1.4400351686270778 79.62915739070627 133.524553030686 8 -2 15
4802 0 1 0 3.494573406065022 80.79751687007877 133.11972835227726 8 -2 15
4568 0 1 0 1.4182112754105851 82.1140365333743 133.37970083384513 8 -2 15
4801 0 1 0 2.0727821593047606 80.87588329124681 133.26171124954578 8 -2 15
4813 0 1 0 2.1350245436697146 88.24960446349131 133.25272039929712 8 -2 15
4580 0 1 0 1.3657119817769272 89.45797336412305 133.33449082302943 8 -2 15
4584 0 1 0 1.3955859908574721 91.94331101188583 133.29811605237984 8 -2 15
4817 0 1 0 2.088687677762642 90.66746801396766 133.20114549741413 8 -2 15
4803 0 1 0 4.185476121244715 79.5985515064478 133.2195318680902 8 -2 15
4807 0 1 0 4.210946912234382 82.06796939844045 132.99730251373973 8 -2 15
5038 0 1 0 3.518220713150185 78.34681118480371 133.43605655843112 8 -1 15
4814 0 1 0 3.5327587552485418 88.24938804801107 133.07430337256636 8 -2 15
4576 0 1 0 1.406411455394704 87.03237996740252 133.2614107563156 8 -2 15
5034 0 1 0 3.504267398179915 75.91752027970841 133.70128276587056 8 -1 15
4824 0 1 0 5.6293465879235605 91.93789922435792 132.93977687966685 8 -2 15
4809 0 1 0 2.082742698956671 85.75915419910012 133.15827315695324 8 -2 15
4811 0 1 0 4.277000437916476 84.53476177937964 132.9989751149528 8 -2 15
5033 0 1 0 2.106856612523922 75.9297219199153 133.84120756601382 8 -1 15
4823 0 1 0 4.226129543605097 91.95016744936068 133.04415028169782 8 -2 15
4810 0 1 0 3.516854396466546 85.80382928284598 133.0235776695973 8 -2 15
4815 0 1 0 4.189102986743115 87.00004915557197 133.0805853668195 8 -2 15
5275 0 1 0 8.52585111771347 74.71834906815558 133.82195602745432 8 -1 15
5039 0 1 0 4.258949603716258 77.12861884413245 133.61174570102202 8 -1 15
5053 0 1 0 6.358910666574724 88.24980330158073 132.87891330547143 8 -2 15
4818 0 1 0 3.5096934865537976 90.70735337229402 133.0877134924566 8 -2 15
5279 0 1 0 8.538685433448444 77.18383807216492 133.53793747980365 8 -1 15
4819 0 1 0 4.251960132810984 89.49283200583406 133.00831854318818 8 -2 15
5040 0 1 0 5.697469115344411 77.10795085627409 133.6601602373687 8 -1 15
5036 0 1 0 5.667716194763125 74.65674521240223 133.80386145683025 8 -1 15
4820 0 1 0 5.657152592062315 89.49516117341744 133.03679278234117 8 -2 15
5277 0 1 0 6.367500327054665 78.34182071707012 133.43925642986176 8 -1 15
5273 0 1 0 6.428099865568718 75.87179476425365 133.71460499377542 8 -1 15
5274 0 1 0 7.799156501124245 75.92249835225277 133.6658390078275 8 -1 15
4816 0 1 0 5.659845271411832 87.00267186511968 133.0336377993017 8 -2 15
5057 0 1 0 6.358625236470619 90.67993266944079 132.93302896216144 8 -2 15
5278 0 1 0 7.794948077708125 78.41705276706847 133.46736861410793 8 -1 15
4812 0 1 0 5.699611427000147 84.53134226154927 132.98748703638586 8 -2 15
5045 0 1 0 6.449018932981862 83.30256100733824 132.92705774258636 8 -2 15
4804 0 1 0 5.631737293430569 79.55873106368065 133.31844532534356 8 -2 15
5042 0 1 0 7.797540138837276 80.8115361008629 133.07988727741363 8 -2 15
5043 0 1 0 8.551871234554342 79.63153944252072 133.26008003729942 8 -2 15
5046 0 1 0 7.852187040455166 83.26580740744083 132.85570566283243 8 -2 15
4808 0 1 0 5.668445224447968 82.05865072632415 132.94349911988922 8 -2 15
5047 0 1 0 8.53025920645896 82.00344638806776 132.91213459812346 8 -2 15
5041 0 1 0 6.368517421641795 80.84460425023937 133.12695752855714 8 -2 15
5063 0 1 0 8.469004811145929 91.92865680587913 132.79515260604586 8 -2 15
5058 0 1 0 7.7880680562416575 90.70576845807786 132.8242933805243 8 -2 15
5051 0 1 0 8.559254897518423 84.4696416373049 132.8306457217084 8 -2 15
5059 0 1 0 8.560852885705616 89.46170379786399 132.88154011475388 8 -2 15
5050 0 1 0 7.847993323564993 85.74637198020463 132.9431488984755 8 -2 15
5054 0 1 0 7.78987612117409 88.26601607463785 132.8866245632021 8 -2 15
5055 0 1 0 8.51896515099145 87.00317189795622 132.8334288351961 8 -2 15
4571 0 1 0 0.006173039874655142 84.526390344303 133.60889196267453 8 -2 15
4567 0 1 0 0.011256453336968106 82.11896731584939 133.70028363573718 8 -2 15
4563 0 1 0 0.009722109020957968 79.62980919801572 133.7389687011069 8 -2 15
4795 0 1 0 0.0315851556317016 74.75575594929964 133.77503721176174 8 -1 15
4849 0 1 0 2.1515621566529903 110.42629268174043 134.76550503752281 8 -2 15
4850 0 1 0 3.5971140041641716 110.4469268442999 134.68242460393475 8 -2 15
5090 0 1 0 7.844487750165455 110.46449186258029 134.44579983282935 8 -2 15
5089 0 1 0 6.456465053788397 110.4632676878533 134.6180040236303 8 -2 15
4612 0 1 0 1.40729096999645 109.18883351458493 134.6470840809511 8 -2 15
5071 0 1 0 8.511931074599953 96.88744699771584 133.40122962721927 8 -2 15
5091 0 1 0 8.552052490162117 109.20451240417881 134.24504563454786 8 -2 15
4852 0 1 0 5.7596205906675175 109.219040564751 134.47888599150042 8 -2 15
4851 0 1 0 4.310742442447379 109.23564321491776 134.50287657391706 8 -2 15
5086 0 1 0 7.821650032924849 108.00715124248305 134.21268147733508 8 -2 15
5085 0 1 0 6.402134543089638 107.9754841333829 134.2493290468199 8 -2 15
4845 0 1 0 2.164635364832337 107.9778133652311 134.50261015011273 8 -2 15
4846 0 1 0 3.6025383761025997 108.00746033940268 134.40865384281696 8 -2 15
5061 0 1 0 6.3517354833657045 93.11083958953104 132.91280905622102 8 -2 15
4608 0 1 0 1.44724917232318 106.77295563937427 134.37857657803804 8 -2 15
4847 0 1 0 4.268311765221298 106.78730722460892 134.33458300865945 8 -2 15
4848 0 1 0 5.712446734224144 106.73627002050934 134.27377559923485 8 -2 15
5087 0 1 0 8.547619363817931 106.75852243396594 134.05761665656706 8 -2 15
4841 0 1 0 2.104604708934669 105.53970755983731 134.21170802708602 8 -2 15
4842 0 1 0 3.555842339238272 105.52116915647686 134.2965104540255 8 -2 15
4604 0 1 0 1.376838520205902 104.31957548907504 134.12253296895807 8 -2 15
5081 0 1 0 6.426277015672585 105.5418965102568 134.01679979175108 8 -2 15
5082 0 1 0 7.852433314063681 105.52147866801856 133.9409403411068 8 -2 15
4843 0 1 0 4.296416898933734 104.30302946553007 134.1478656943119 8 -2 15
4837 0 1 0 2.0774185010058135 103.08117547942351 134.09550877290977 8 -2 15
4844 0 1 0 5.692110813428517 104.27970179720803 133.91812589291087 8 -2 15
4838 0 1 0 3.5642084510460497 103.0900708190813 134.15438481667428 8 -2 15
4600 0 1 0 1.365368436578522 101.84197069995653 134.06485428573933 8 -2 15
5083 0 1 0 8.517433487054051 104.30577356761721 133.82191031936316 8 -2 15
5077 0 1 0 6.420244351555932 103.04319835082462 133.92882889230555 8 -2 15
5070 0 1 0 7.805594529261298 98.12192225864847 133.58997118883423 8 -2 15
5079 0 1 0 8.503360234534192 101.82074240010482 133.74550716802483 8 -2 15
4839 0 1 0 4.240029770839062 101.8236003721864 134.06561301509538 8 -2 15
5078 0 1 0 7.83468755808786 103.03609220347393 133.79137302390208 8 -2 15
4840 0 1 0 5.7133503051808185 101.82259377224827 133.99848865212323 8 -2 15
4596 0 1 0 1.3915119352180307 99.343729916739 133.9780293317523 8 -2 15
4588 0 1 0 1.378543662288953 94.4382738268595 133.52470408788304 8 -2 15
5075 0 1 0 8.521375799790269 99.33012773586829 133.52454987535012 8 -2 15
4834 0 1 0 3.5401913021781533 100.59067112462091 133.91030069204413 8 -2 15
4833 0 1 0 2.1010899873531934 100.59324438638292 133.89999307075195 8 -2 15
4821 0 1 0 2.0873540914709183 93.15939433900643 133.29706517936526 8 -2 15
4836 0 1 0 5.658872948190175 99.35428756045256 133.78623997235061 8 -2 15
4592 0 1 0 1.3720997256139793 96.86517912768217 133.7789556755905 8 -2 15
5073 0 1 0 6.364093285644122 100.59699982907243 133.7715605093159 8 -2 15
4829 0 1 0 2.101500841668367 98.10986841356907 133.83720687429627 8 -2 15
5074 0 1 0 7.814677524514917 100.58876006909966 133.76049323191046 8 -2 15
4835 0 1 0 4.2264059601025155 99.34640406908194 133.84447800524487 8 -2 15
4825 0 1 0 2.1335660589183605 95.65547856341263 133.6423075573823 8 -2 15
4822 0 1 0 3.5099212174611067 93.16832264641339 133.15343977654493 8 -2 15
4830 0 1 0 3.534041013535198 98.09760803370385 133.83195380852356 8 -2 15
4831 0 1 0 4.248239554532101 96.87808390373566 133.68803020417496 8 -2 15
4828 0 1 0 5.674520334136044 94.41520362752355 133.2073516435824 8 -2 15
4832 0 1 0 5.653812945571983 96.87699770698964 133.56667786828152 8 -2 15
4826 0 1 0 3.522743136480738 95.62855272945455 133.56976043220158 8 -2 15
4827 0 1 0 4.231795532715942 94.38925590229512 133.24886669865512 8 -2 15
5069 0 1 0 6.381238569243739 98.11758556806342 133.70454536328 8 -2 15
5065 0 1 0 6.384536676176924 95.63870890624688 133.44701401429995 8 -2 15
5066 0 1 0 7.781975541025898 95.64653797572409 133.29117213821013 8 -2 15
5067 0 1 0 8.506468662729795 94.4007841885377 132.96714612478672 8 -2 15
5062 0 1 0 7.75233544725069 93.16561953002545 132.91213797743893 8 -2 15
4607 0 1 0 0.004381911258802464 106.76744257120549 134.4607143521759 8 -2 15
4616 0 1 0 1.4423161968501546 111.65316836394916 134.90301870536868 8 -2 15
4855 0 1 0 4.280787143997709 111.69806632700809 134.79079224333023 8 -2 15
4858 0 1 0 3.539636532580564 115.37715484314714 135.0418571181589 8 -2 15
4857 0 1 0 2.1355001409528094 115.34542601442934 135.16425323310833 8 -2 15
4860 0 1 0 5.660838587920328 114.11336804632592 134.70608831417707 8 -2 15
4859 0 1 0 4.255134636283292 114.14750506507139 134.90649659023862 8 -2 15
4620 0 1 0 1.4139022968018982 114.14113802381793 135.0959772757169 8 -2 15
4854 0 1 0 3.5989623721417505 112.89044274920401 134.84089583705895 8 -2 15
4853 0 1 0 2.168184820543003 112.87306545498893 134.95143183886503 8 -2 15