LAMMPS (4 Feb 2025)
OMP_NUM_THREADS environment is not set. Defaulting to 1 thread. (src/comm.cpp:99)
  using 1 OpenMP thread(s) per MPI task
# LAMMPS script for running NVT simulation

units       metal
dimension   3
boundary    p p p
atom_style  full
atom_modify map yes

newton      on

read_data   ../start.lammps-data
Reading data file ...
  orthogonal box = (0 0 0) to (150.92784 145.23038 151.07317)
  12 by 8 by 12 MPI processor grid
  reading atoms ...
  11640 atoms
  reading velocities ...
  11640 velocities
Finding 1-2 1-3 1-4 neighbors ...
  special bond factors lj:    0        0        0       
  special bond factors coul:  0        0        0       
     0 = max # of 1-2 neighbors
     0 = max # of 1-3 neighbors
     0 = max # of 1-4 neighbors
     1 = max # of special neighbors
  special bonds CPU = 5.948 seconds
  read_data CPU = 6.151 seconds

pair_style  symmetrix/mace
pair_coeff  * * ../../../00-common/models/ch2o-dens-inv_swa-1-6-8.json C H O
Loading MACE model from '../../../00-common/models/ch2o-dens-inv_swa-1-6-8.json' ... success
  mapping LAMMPS type 1 (C) to MACE type 1
  mapping LAMMPS type 2 (H) to MACE type 0
  mapping LAMMPS type 3 (O) to MACE type 2

variable t equal step

group graphene type 1
8640 atoms in group graphene
group H2O type 2 3
3000 atoms in group H2O

thermo 1000

######### NVT equilibration for 80 ps #############

dump DUMP1 all atom 100 nvt_equi.lammpstrj
timestep 0.001
fix NVT1 graphene nvt temp 300 300 0.1
fix NVT2 H2O nvt temp 300 300 0.1
run 80000
Neighbor list info ...
  update: every = 1 steps, delay = 0 steps, check = yes
  max neighbors/atom: 2000, page size: 100000
  master list distance cutoff = 8
  ghost atom cutoff = 8
  binsize = 4, bins = 38 37 38
  1 neighbor lists, perpetual/occasional/extra = 1 0 0
  (1) pair symmetrix/mace, perpetual
      attributes: full, newton on
      pair build: full/bin
      stencil: full/bin/3d
      bin: standard
Per MPI rank memory allocation (min/avg/max) = 5.922 | 6.171 | 8.95 Mbytes
   Step          Temp          E_pair         E_mol          TotEng         Press     
         0   78.173347     -1809930.8      0             -1809813.2      4275.9979    
      1000   187.2189      -1809934.9      0             -1809653.2      1569.622     
      2000   299.07603     -1809825.6      0             -1809375.7      782.20655    
      3000   291.82146     -1809836.5      0             -1809397.5      624.42608    
      4000   300.97743     -1809837.5      0             -1809384.7      545.83131    
      5000   299.79399     -1809852        0             -1809401        313.34119    
      6000   298.03606     -1809871.7      0             -1809423.4      227.94835    
      7000   299.59108     -1809855.9      0             -1809405.1      317.56966    
      8000   303.12356     -1809865.7      0             -1809409.7      45.394739    
      9000   301.8734      -1809886.7      0             -1809432.6      239.71877    
     10000   299.49865     -1809850.8      0             -1809400.2      0.56984467   
     11000   298.91083     -1809865.6      0             -1809415.9      82.712947    
     12000   297.97371     -1809869.8      0             -1809421.5      141.22633    
     13000   304.4519      -1809852        0             -1809393.9      275.35076    
     14000   298.47035     -1809849.6      0             -1809400.6      212.38517    
     15000   300.28027     -1809866.2      0             -1809414.4      194.47416    
     16000   299.61783     -1809855        0             -1809404.2      133.50247    
     17000   293.61527     -1809863.7      0             -1809421.9      195.38592    
     18000   307.15211     -1809865.8      0             -1809403.7      100.81508    
     19000   296.49797     -1809861.6      0             -1809415.5      173.96462    
     20000   298.98476     -1809860.5      0             -1809410.7      21.624006    
     21000   302.18764     -1809853.6      0             -1809399        85.079983    
     22000   295.378       -1809865.2      0             -1809420.8      127.66144    
     23000   295.70715     -1809856.6      0             -1809411.8      125.67035    
     24000   298.10642     -1809859.8      0             -1809411.3      106.12953    
     25000   298.1384      -1809864.9      0             -1809416.3      145.29046    
     26000   304.20197     -1809857.7      0             -1809400.1      116.66501    
     27000   296.58895     -1809866.3      0             -1809420.1      136.76453    
     28000   300.58757     -1809863.2      0             -1809411        72.719232    
     29000   297.29332     -1809861        0             -1809413.8      125.04323    
     30000   301.09699     -1809864.3      0             -1809411.4      113.65396    
     31000   297.22533     -1809862.5      0             -1809415.3      38.76262     
     32000   299.21756     -1809863.9      0             -1809413.7      135.936      
     33000   302.36741     -1809859.8      0             -1809404.9      140.63596    
     34000   299.032       -1809865        0             -1809415.2      89.951255    
     35000   300.41319     -1809859.6      0             -1809407.6      64.516863    
     36000   301.5097      -1809865.8      0             -1809412.2      96.605492    
     37000   298.34001     -1809863        0             -1809414.2      149.98199    
     38000   300.2692      -1809867.2      0             -1809415.4      123.61538    
     39000   300.51045     -1809870.8      0             -1809418.7      124.82038    
     40000   303.41336     -1809871        0             -1809414.6      12.02151     
     41000   298.35389     -1809870.2      0             -1809421.4      73.027741    
     42000   302.03066     -1809876.6      0             -1809422.2      98.676647    
     43000   296.76308     -1809873.7      0             -1809427.2      112.31771    
     44000   297.85485     -1809874.3      0             -1809426.2      69.363245    
     45000   299.9528      -1809861.4      0             -1809410.1      78.651527    
     46000   297.7169      -1809863.1      0             -1809415.2      63.877316    
     47000   301.17391     -1809870.2      0             -1809417.1      132.71696    
     48000   301.55197     -1809867.5      0             -1809413.8      24.08654     
     49000   300.17902     -1809873.8      0             -1809422.2      65.673569    
     50000   299.95637     -1809871.7      0             -1809420.4      56.311356    
     51000   302.20359     -1809872.9      0             -1809418.2      61.536921    
     52000   297.69412     -1809875.6      0             -1809427.7      119.67509    
     53000   302.46456     -1809871        0             -1809416        51.979703    
     54000   302.31116     -1809864.7      0             -1809409.9      42.248732    
     55000   300.18627     -1809863.7      0             -1809412.1      109.63184    
     56000   298.21334     -1809869.9      0             -1809421.3      40.041046    
     57000   301.41575     -1809875.9      0             -1809422.4      88.920421    
     58000   303.41227     -1809873.8      0             -1809417.3      108.07043    
     59000   296.94501     -1809873        0             -1809426.3     -13.505865    
     60000   300.00397     -1809876.2      0             -1809424.8      87.671479    
     61000   297.98642     -1809869.6      0             -1809421.3      59.836047    
     62000   301.57901     -1809869.3      0             -1809415.6      68.892585    
     63000   299.93536     -1809871.7      0             -1809420.5      81.151937    
     64000   302.89764     -1809877.7      0             -1809422        69.226078    
     65000   302.86341     -1809875.9      0             -1809420.2      92.65007     
     66000   300.29744     -1809872.2      0             -1809420.4      43.360022    
     67000   302.84528     -1809868.9      0             -1809413.2      44.098762    
     68000   299.32409     -1809872.2      0             -1809421.9      52.838952    
     69000   296.29593     -1809868.9      0             -1809423.1      50.177529    
     70000   299.95856     -1809873.3      0             -1809422        18.141359    
     71000   301.9234      -1809873.9      0             -1809419.7      74.360366    
     72000   302.16604     -1809875.3      0             -1809420.7      135.17775    
     73000   299.7777      -1809874.9      0             -1809423.9      25.267317    
     74000   302.53202     -1809879.5      0             -1809424.4      85.287229    
     75000   296.19468     -1809876        0             -1809430.4      69.472391    
     76000   305.27153     -1809873.8      0             -1809414.6      75.200787    
     77000   292.60538     -1809874.6      0             -1809434.4      56.34653     
     78000   295.5644      -1809868.4      0             -1809423.8      69.285736    
     79000   297.35041     -1809872.4      0             -1809425.1      82.3523      
     80000   299.85786     -1809871        0             -1809419.9      112.10168    
Loop time of 57688.8 on 1152 procs for 80000 steps with 11640 atoms

Performance: 0.120 ns/day, 200.308 hours/ns, 1.387 timesteps/s, 16.142 katom-step/s
100.0% CPU use with 1152 MPI tasks x 1 OpenMP threads

MPI task timing breakdown:
Section |  min time  |  avg time  |  max time  |%varavg| %total
---------------------------------------------------------------
Pair    | 0.15375    | 5079.5     | 55546      |15079.4 |  8.81
Bond    | 0.0031909  | 0.0064565  | 0.028186   |   6.5 |  0.00
Neigh   | 0.015312   | 0.13295    | 4.7473     | 109.4 |  0.00
Comm    | 0.56126    | 2303.8     | 28938      |10558.0 |  3.99
Output  | 0.56519    | 5.1536     | 9.7865     | 118.2 |  0.01
Modify  | 5.6517     | 50293      | 57676      |6546.2 | 87.18
Other   |            | 6.76       |            |       |  0.01

Nlocal:        10.1042 ave         298 max           0 min
Histogram: 1033 16 43 44 7 3 0 1 2 3
Nghost:        88.2135 ave        1817 max           0 min
Histogram: 924 138 55 16 4 7 5 0 2 1
Neighs:              0 ave           0 max           0 min
Histogram: 1152 0 0 0 0 0 0 0 0 0
FullNghs:      1088.17 ave       63897 max           0 min
Histogram: 1058 75 6 6 1 0 1 2 2 1

Total # of neighbors = 1253570
Ave neighs/atom = 107.69502
Ave special neighs/atom = 0
Neighbor list builds = 3877
Dangerous builds = 0

write_restart nvt_equi.restart.*
System init for write_restart ...
write_data nvt_equi_final.lammps-data
System init for write_data ...

Total wall time: 16:01:57
