 DBCSR| CPU Multiplication driver                                           BLAS
 DBCSR| Multrec recursion limit                                              512
 DBCSR| Multiplication stack size                                           1000
 DBCSR| Maximum elements for images                                    UNLIMITED
 DBCSR| Multiplicative factor virtual images                                   1
 DBCSR| Use multiplication densification                                       T
 DBCSR| Multiplication size stacks                                             3
 DBCSR| Use memory pool for CPU allocation                                     F
 DBCSR| Number of 3D layers                                               SINGLE
 DBCSR| Use MPI memory allocation                                              F
 DBCSR| Use RMA algorithm                                                      F
 DBCSR| Use Communication thread                                               T
 DBCSR| Communication thread load                                             87
 DBCSR| MPI: My node id                                                        0
 DBCSR| MPI: Number of nodes                                                 128
 DBCSR| OMP: Current number of threads                                         1
 DBCSR| OMP: Max number of threads                                             1
 DBCSR| Split modifier for TAS multiplication algorithm                  1.0E+00


  **** **** ******  **  PROGRAM STARTED AT               2025-10-22 11:49:58.126
 ***** ** ***  *** **   PROGRAM STARTED ON                             nid003154
 **    ****   ******    PROGRAM STARTED BY                            xr223_ukcp
 ***** **    ** ** **   PROGRAM PROCESS ID                                106783
  **** **  *******  **  PROGRAM STARTED IN /mnt/lustre/a2fs-work3/work/e89/e89/x
                                           r223_ukcp/BINDING-ENERGY-DARREN/bindi
                                           ng-energy/2-leg/s+1.00/d+4.00

 CP2K| version string:                                          CP2K version 9.1
 CP2K| source code revision number:                                  git:d8d7100
 CP2K| cp2kflags: omp libint fftw3 libxc elpa parallel mpi3 scalapack plumed2 mk
 CP2K|            l
 CP2K| is freely available from                            https://www.cp2k.org/
 CP2K| Program compiled at                       Thu 08 Jun 2023 08:54:13 AM BST
 CP2K| Program compiled on                                                  ln03
 CP2K| Program compiled for                                              ARCHER2
 CP2K| Data directory path       /work/y07/shared/apps/core/cp2k/cp2k-9.1.0/data
 CP2K| Input file name                                              cp2k_sub.inp

 GLOBAL| Force Environment number                                              1
 GLOBAL| Basis set file name                                      GTH_BASIS_SETS
 GLOBAL| Potential file name                                           POTENTIAL
 GLOBAL| MM Potential file name                                     MM_POTENTIAL
 GLOBAL| Coordinate file name                                           init.pdb
 GLOBAL| Method name                                                        CP2K
 GLOBAL| Project name                                                    MAT-H2O
 GLOBAL| Run type                                                         ENERGY
 GLOBAL| FFT library                                                       FFTW3
 GLOBAL| Diagonalization library                                            ELPA
 GLOBAL| Minimum number of eigenvectors for ELPA usage                        16
 GLOBAL| Orthonormality check for eigenvectors                          DISABLED
 GLOBAL| Matrix multiplication library                                 ScaLAPACK
 GLOBAL| All-to-all communication in single precision                          F
 GLOBAL| FFTs using library dependent lengths                                  F
 GLOBAL| Grid backend                                                       AUTO
 GLOBAL| Global print level                                                  LOW
 GLOBAL| MPI I/O enabled                                                       T
 GLOBAL| Total number of message passing processes                           128
 GLOBAL| Number of threads for this process                                    1
 GLOBAL| This output is from process                                           0
 GLOBAL| Stack size for threads created by OpenMP (OMP_STACKSIZE)        default
 GLOBAL| CPU model name                          AMD EPYC 7742 64-Core Processor
 GLOBAL| CPUID                                                              1002

 MEMORY| system memory details [Kb]
 MEMORY|                        rank 0           min           max       average
 MEMORY| MemTotal            263266868     263266868     263266868     263266868
 MEMORY| MemFree             239848460     239848460     239848460     239848460
 MEMORY| Buffers                179156        179156        179156        179156
 MEMORY| Cached                1529436       1529432       1529436       1529435
 MEMORY| Slab                  4454524       4454524       4454524       4454524
 MEMORY| SReclaimable          1755032       1755032       1755032       1755032
 MEMORY| MemLikelyFree       243312084     243312080     243312084     243312083


 *******************************************************************************
 *******************************************************************************
 **                                                                           **
 **     #####                         ##              ##                      **
 **    ##   ##            ##          ##              ##                      **
 **   ##     ##                       ##            ######                    **
 **   ##     ##  ##   ##  ##   #####  ##  ##   ####   ##    #####    #####    **
 **   ##     ##  ##   ##  ##  ##      ## ##   ##      ##   ##   ##  ##   ##   **
 **   ##  ## ##  ##   ##  ##  ##      ####     ###    ##   ######   ######    **
 **    ##  ###   ##   ##  ##  ##      ## ##      ##   ##   ##       ##        **
 **     #######   #####   ##   #####  ##  ##  ####    ##    #####   ##        **
 **           ##                                                    ##        **
 **                                                                           **
 **                                                ... make the atoms dance   **
 **                                                                           **
 **            Copyright (C) by CP2K developers group (2000-2021)             **
 **                      J. Chem. Phys. 152, 194103 (2020)                    **
 **                                                                           **
 *******************************************************************************


 TOTAL NUMBERS AND MAXIMUM NUMBERS

  Total number of            - Atomic kinds:                                   3
                             - Atoms:                                         67
                             - Shell sets:                                    70
                             - Shells:                                       338
                             - Primitive Cartesian functions:                341
                             - Cartesian basis functions:                    938
                             - Spherical basis functions:                    872

  Maximum angular momentum of- Orbital basis functions:                        2
                             - Local part of the GTH pseudopotential:          2
                             - Non-local part of the GTH pseudopotential:      0


 SCF PARAMETERS         Density guess:                                   RESTART
                        --------------------------------------------------------
                        max_scf:                                              20
                        max_scf_history:                                       0
                        max_diis:                                              4
                        --------------------------------------------------------
                        eps_scf:                                        5.00E-07
                        eps_scf_history:                                0.00E+00
                        eps_diis:                                       1.00E-01
                        eps_eigval:                                     1.00E-05
                        --------------------------------------------------------
                        level_shift [a.u.]:                                 0.00
                        added MOs                                        20    0
                        --------------------------------------------------------
                        Mixing method:                            BROYDEN_MIXING
                                                charge density mixing in g-space
                        --------------------------------------------------------
                        Smear method:                                FERMI_DIRAC
                        Electronic temperature [K]:                        300.0
                        Electronic temperature [a.u.]:                  9.50E-04
                        Accuracy threshold:                             1.00E-10
                        --------------------------------------------------------
                        Outer loop SCF in use 
                        No variables optimised in outer loop
                        eps_scf                                         5.00E-07
                        max_scf                                               20
                        No outer loop optimization
                        step_size                                       5.00E-01

 Number of electrons:                                                        264
 Number of occupied orbitals:                                                132
 Number of molecular orbitals:                                               152

 Number of orbital functions:                                                872
 Number of independent orbital functions:                                    872

 Extrapolation method: initial_guess

 *** WARNING in qs_initial_guess.F:309 :: User requested to restart the    ***
 *** wavefunction from the file named: MAT-H2O-RESTART.wfn. This file does ***
 *** not exist. Please check the existence of the file or change properly  ***
 *** the value of the keyword WFN_RESTART_FILE_NAME. Calculation continues ***
 *** using ATOMIC GUESS.                                                   ***



 SCF WAVEFUNCTION OPTIMIZATION

  Step     Update method      Time    Convergence         Total energy    Change
  ------------------------------------------------------------------------------
     1 NoMix/Diag. 0.40E+00    0.6     0.96003960      -379.0572295210 -3.79E+02
     2 Broy./Diag. 0.40E+00    0.7     0.34111964      -370.0156273865  9.04E+00
     3 Broy./Diag. 0.40E+00    0.7     0.02372972      -378.8179188910 -8.80E+00
     4 Broy./Diag. 0.40E+00    0.8     0.00927743      -382.3706350276 -3.55E+00
     5 Broy./Diag. 0.40E+00    0.8     0.00313449      -382.5555099702 -1.85E-01
     6 Broy./Diag. 0.40E+00    0.8     0.00110314      -382.2512819297  3.04E-01
     7 Broy./Diag. 0.40E+00    0.8     0.00098672      -382.2044573262  4.68E-02
     8 Broy./Diag. 0.40E+00    0.8     0.00060110      -382.2066774880 -2.22E-03
     9 Broy./Diag. 0.40E+00    0.8     0.00074142      -382.2006306219  6.05E-03
    10 Broy./Diag. 0.40E+00    0.8     0.00033339      -382.1990716185  1.56E-03
    11 Broy./Diag. 0.40E+00    0.8     0.00023854      -382.1968780716  2.19E-03
    12 Broy./Diag. 0.40E+00    0.8     0.00007737      -382.1966305215  2.48E-04
    13 Broy./Diag. 0.40E+00    0.8     0.00004727      -382.1966735281 -4.30E-05
    14 Broy./Diag. 0.40E+00    0.8     0.00001356      -382.1962375084  4.36E-04
    15 Broy./Diag. 0.40E+00    0.8     0.00000953      -382.1962161720  2.13E-05
    16 Broy./Diag. 0.40E+00    0.8     0.00001685      -382.1963776082 -1.61E-04
    17 Broy./Diag. 0.40E+00    0.8     0.00000194      -382.1965094196 -1.32E-04
    18 Broy./Diag. 0.40E+00    0.8     0.00000144      -382.1965397566 -3.03E-05
    19 Broy./Diag. 0.40E+00    0.8     0.00000121      -382.1965594768 -1.97E-05
    20 Broy./Diag. 0.40E+00    0.8     0.00000052      -382.1965771000 -1.76E-05

  Leaving inner SCF loop after reaching    20 steps.


  Electronic density on regular grids:       -264.0000000000        0.0000000000
  Core density on regular grids:              263.9999999998       -0.0000000002
  Total charge density on r-space grids:       -0.0000000002
  Total charge density g-space grids:          -0.0000000002

  Overlap energy of the core charge distribution:               0.00000793327650
  Self energy of the core charge distribution:               -897.78766230971098
  Core Hamiltonian energy:                                    278.64372014697972
  Hartree energy:                                             353.03165295816706
  Exchange-correlation energy:                               -115.90897915260722
  Dispersion energy:                                           -0.17531667605531
  Electronic entropic energy:                                  -0.00000000000000
  Fermi energy:                                                -0.06961334009818

  Total energy:                                              -382.19657709995028

  outer SCF iter =    1 RMS gradient =   0.52E-06 energy =       -382.1965771000
     1 Broy./Diag. 0.40E+00    1.5     0.00000099      -382.1966023981 -2.53E-05
     2 Broy./Diag. 0.40E+00    0.8     0.00000183      -382.1965971234  5.27E-06
     3 Broy./Diag. 0.40E+00    0.8     0.00000038      -382.1965886560  8.47E-06

  *** SCF run converged in     3 steps ***


  Electronic density on regular grids:       -264.0000000000        0.0000000000
  Core density on regular grids:              263.9999999998       -0.0000000002
  Total charge density on r-space grids:       -0.0000000002
  Total charge density g-space grids:          -0.0000000002

  Overlap energy of the core charge distribution:               0.00000793327650
  Self energy of the core charge distribution:               -897.78766230971098
  Core Hamiltonian energy:                                    278.64370458507693
  Hartree energy:                                             353.03165980677568
  Exchange-correlation energy:                               -115.90898199531644
  Dispersion energy:                                           -0.17531667605531
  Electronic entropic energy:                                  -0.00000000000000
  Fermi energy:                                                -0.06961280536605

  Total energy:                                              -382.19658865595358

  outer SCF iter =    2 RMS gradient =   0.38E-06 energy =       -382.1965886560
  outer SCF loop converged in   2 iterations or   23 steps


 ENERGY| Total FORCE_EVAL ( QS ) energy [a.u.]:             -382.196588655953576

 -------------------------------------------------------------------------------
 -                                                                             -
 -                                DBCSR STATISTICS                             -
 -                                                                             -
 -------------------------------------------------------------------------------
 COUNTER                                    TOTAL       BLAS       SMM       ACC
 flops     9 x    22 x    24               218592     100.0%      0.0%      0.0%
 flops    22 x     9 x    24               218592     100.0%      0.0%      0.0%
 flops     9 x     9 x    24               268272     100.0%      0.0%      0.0%
 flops    22 x    22 x    24               534336     100.0%      0.0%      0.0%
 flops     9 x    22 x    32              1165824     100.0%      0.0%      0.0%
 flops    22 x     9 x    32              1165824     100.0%      0.0%      0.0%
 flops     9 x     9 x    32              1430784     100.0%      0.0%      0.0%
 flops    22 x    22 x    32              2849792     100.0%      0.0%      0.0%
 flops     9 x    13 x    24              8266752     100.0%      0.0%      0.0%
 flops    13 x     9 x    24              8266752     100.0%      0.0%      0.0%
 flops    22 x    13 x    24             10103808     100.0%      0.0%      0.0%
 flops    13 x    22 x    24             10103808     100.0%      0.0%      0.0%
 flops     9 x    13 x    32             44089344     100.0%      0.0%      0.0%
 flops    13 x     9 x    32             44089344     100.0%      0.0%      0.0%
 flops    22 x    13 x    32             53886976     100.0%      0.0%      0.0%
 flops    13 x    22 x    32             53886976     100.0%      0.0%      0.0%
 flops    13 x    13 x    24            388078080     100.0%      0.0%      0.0%
 flops    13 x    13 x    32           2069749760     100.0%      0.0%      0.0%
 flops inhomo. stacks                           0       0.0%      0.0%      0.0%
 flops total                         2.698374E+09     100.0%      0.0%      0.0%
 flops max/rank                     35.267648E+06     100.0%      0.0%      0.0%
 matmuls inhomo. stacks                         0       0.0%      0.0%      0.0%
 matmuls total                             261970     100.0%      0.0%      0.0%
 number of processed stacks                 23575     100.0%      0.0%      0.0%
 average stack size                                    11.1       0.0       0.0
 marketing flops                     4.617052E+09
 -------------------------------------------------------------------------------
 # multiplications                             23
 max memory usage/rank             343.699456E+06
 # max total images/rank                        2
 # max 3D layers                                1
 # MPI messages exchanged                   85376
 MPI messages size (bytes):
  total size                       536.538112E+06
  min size                           0.000000E+00
  max size                          29.952000E+03
  average size                       6.284414E+03
 MPI breakdown and total messages size (bytes):
             size <=      128               58696                        0
       128 < size <=     8192                   0                        0
      8192 < size <=    32768               26680                536538112
     32768 < size <=   131072                   0                        0
    131072 < size <=  4194304                   0                        0
   4194304 < size <= 16777216                   0                        0
  16777216 < size                               0                        0
 -------------------------------------------------------------------------------

 *** WARNING in dbcsr_mm.F:294 :: Using a non-square number of MPI ranks ***
 *** might lead to poor performance. Used ranks: 128 Suggested: 121 256  ***

 -------------------------------------------------------------------------------
 -                                                                             -
 -                      DBCSR MESSAGE PASSING PERFORMANCE                      -
 -                                                                             -
 -------------------------------------------------------------------------------
 ROUTINE             CALLS      AVE VOLUME [Bytes]
 MP_Bcast               19                     12.
 MP_Allreduce          217                     12.
 MP_Alltoall           656                  51873.
 MP_ISend             1472                   3590.
 MP_IRecv             1472                   2683.
 -------------------------------------------------------------------------------

 -------------------------------------------------------------------------------
 -                                                                             -
 -                                GRID STATISTICS                              -
 -                                                                             -
 -------------------------------------------------------------------------------
 LP    KERNEL             BACKEND                              COUNT     PERCENT
 4     collocate ortho    REF                                1129296      47.08%
 4     integrate ortho    REF                                1082242      45.11%
 2     collocate ortho    REF                                  47736       1.99%
 2     integrate ortho    REF                                  45747       1.91%
 3     collocate ortho    REF                                  38880       1.62%
 3     integrate ortho    REF                                  37260       1.55%
 0     collocate general  REF                                   8576       0.36%
 1     collocate ortho    REF                                   2736       0.11%
 1     integrate ortho    REF                                   2622       0.11%
 0     collocate ortho    REF                                   1920       0.08%
 0     integrate ortho    REF                                   1840       0.08%
 -------------------------------------------------------------------------------

 MEMORY| Estimated peak process memory [MiB]                                 329

 -------------------------------------------------------------------------------
 -                                                                             -
 -                         MESSAGE PASSING PERFORMANCE                         -
 -                                                                             -
 -------------------------------------------------------------------------------

 ROUTINE             CALLS      AVE VOLUME [Bytes]
 MP_Group                5
 MP_Bcast              182                3572116.
 MP_Allreduce          631                   1561.
 MP_Sync                51
 MP_Alltoall           367                3388475.
 MP_SendRecv           276                 409600.
 MP_ISendRecv        17907                  24960.
 MP_Wait             20377
 MP_comm_split          23
 MP_ISend             2090                 367034.
 MP_IRecv             2090                 367136.
 MP_Recv                15                  69760.
 -------------------------------------------------------------------------------


 -------------------------------------------------------------------------------
 -                                                                             -
 -                           R E F E R E N C E S                               -
 -                                                                             -
 -------------------------------------------------------------------------------
 
 CP2K version 9.1, the CP2K developers group (2021).
 CP2K is freely available from https://www.cp2k.org/ .

 Kuehne,Thomas D.; Iannuzzi,Marcella; Del Ben,Mauro;
 Rybkin,Vladimir V.; Seewald,Patrick; Stein,Frederick; Laino,Teodoro;
 Khaliullin,Rustam Z.; Schuett,Ole; Schiffmann,Florian; Golze,Dorothea;
 Wilhelm,Jan; Chulkov,Sergey; Bani-Hashemian,Mohammad Hossein;
 Weber,Valery; Borstnik,Urban; Taillefumier,Mathieu;
 Jakobovits,Alice Shoshana; Lazzaro,Alfio; Pabst,Hans; Mueller,Tiziano;
 Schade,Robert; Guidon,Manuel; Andermatt,Samuel; Holmberg,Nico;
 Schenter,Gregory K.; Hehn,Anna; Bussy,Augustin; Belleflamme,Fabian;
 Tabacchi,Gloria; Gloess,Andreas; Lass,Michael; Bethune,Iain;
 Mundy,Christopher J.; Plessl,Christian; Watkins,Matt;
 VandeVondele,Joost; Krack,Matthias; Hutter,Juerg. 
 The Journal of Chemical Physics, 152 (19), (2020). 
 CP2K: An electronic structure and molecular dynamics software package -
 Quickstep: Efficient and accurate electronic structure calculations.
 https://doi.org/10.1063/5.0007045

 Goerigk, Lars; Hansen, Andreas; Bauer, Christoph; Ehrlich, Stephan;
 Najibi, Asim; Grimme, Stefan. , 19 (48), (2017). 
 A look at the density functional theory zoo with the advanced GMTKN55 database
 for general main group thermochemistry, kinetics and noncovalent interactions.
 https://doi.org/10.1039/C7CP04913G

 Schuett, Ole; Messmer, Peter; Hutter, Juerg; VandeVondele, Joost. 
 Electronic Structure Calculations on Graphics Processing Units, John
 Wiley & Sons, Ltd, 173-190 (2016). 
 GPU-Accelerated Sparse Matrix-Matrix Multiplication for
 Linear Scaling Density Functional Theory.
 https://doi.org/10.1002/9781118670712.ch8

 Borstnik, U; VandeVondele, J; Weber, V; Hutter, J. 
 PARALLEL COMPUTING, 40 (5-6), 47-58 (2014). 
 Sparse matrix multiplication: The distributed block-compressed sparse
 row library.
 https://doi.org/10.1016/j.parco.2014.03.012

 Hutter, J; Iannuzzi, M; Schiffmann, F; VandeVondele, J. 
 WIREs Comput Mol Sci., 4 (1), 15-25 (2014). 
 CP2K: atomistic simulations of condensed matter systems.
 https://doi.org/10.1002/wcms.1159

 Marek, A; Blum, V; Johanni, R; Havu, V; Lang, B; Auckenthaler, T;
 Heinecke, A; Bungartz, H; Lederer, H. 
 Journal of Physics: Condensed Matter, 26 (21), (2014). 
 The ELPA library: scalable parallel eigenvalue solutions for
 electronic structure
 theory and computational science.
 https://doi.org/10.1088/0953-8984/26/21/213201

 Grimme, S; Ehrlich, S; Goerigk, L. 
 JOURNAL OF COMPUTATIONAL CHEMISTRY, 32, 1456 (2011). 
 Effect of the damping function in dispersion corrected density functional theory.
 https://doi.org/10.1002/jcc.21759

 Grimme, S; Antony, J; Ehrlich, S; Krieg, H. 
 JOURNAL OF CHEMICAL PHYSICS, 132 (15), 154104 (2010). 
 A consistent and accurate ab initio parametrization of density
 functional dispersion correction (DFT-D) for the 94 elements H-Pu.
 https://doi.org/10.1063/1.3382344

 VandeVondele, J; Hutter, J. 
 JOURNAL OF CHEMICAL PHYSICS, 127 (11), 114105 (2007). 
 Gaussian basis sets for accurate calculations on molecular systems in
 gas and condensed phases.
 https://doi.org/10.1063/1.2770708

 Krack, M. 
 THEORETICAL CHEMISTRY ACCOUNTS, 114 (1-3), 145-152 (2005). 
 Pseudopotentials for H to Kr optimized for gradient-corrected
 exchange-correlation functionals.
 https://doi.org/10.1007/s00214-005-0655-y

 VandeVondele, J; Krack, M; Mohamed, F; Parrinello, M; Chassaing, T;
 Hutter, J. COMPUTER PHYSICS COMMUNICATIONS, 167 (2), 103-128 (2005). 
 QUICKSTEP: Fast and accurate density functional calculations using a
 mixed Gaussian and plane waves approach.
 https://doi.org/10.1016/j.cpc.2004.12.014

 Frigo, M; Johnson, SG. 
 PROCEEDINGS OF THE IEEE, 93 (2), 216-231 (2005). 
 The design and implementation of FFTW3.
 https://doi.org/10.1109/JPROC.2004.840301

 Hartwigsen, C; Goedecker, S; Hutter, J. 
 PHYSICAL REVIEW B, 58 (7), 3641-3662 (1998). 
 Relativistic separable dual-space Gaussian pseudopotentials from H to Rn.
 https://doi.org/10.1103/PhysRevB.58.3641

 Zhang, YK; Yang, WT. 
 PHYSICAL REVIEW LETTERS, 80 (4), 890-890 (1998). 
 Comment on Generalized gradient approximation made simple.
 https://doi.org/10.1103/PhysRevLett.80.890

 Lippert, G; Hutter, J; Parrinello, M. 
 MOLECULAR PHYSICS, 92 (3), 477-487 (1997). 
 A hybrid Gaussian and plane wave density functional scheme.
 https://doi.org/10.1080/002689797170220

 Perdew, JP; Burke, K; Ernzerhof, M. 
 PHYSICAL REVIEW LETTERS, 77 (18), 3865-3868 (1996). 
 Generalized gradient approximation made simple.
 https://doi.org/10.1103/PhysRevLett.77.3865

 Goedecker, S; Teter, M; Hutter, J. 
 PHYSICAL REVIEW B, 54 (3), 1703-1710 (1996). 
 Separable dual-space Gaussian pseudopotentials.
 https://doi.org/10.1103/PhysRevB.54.1703


 -------------------------------------------------------------------------------
 -                                                                             -
 -                                T I M I N G                                  -
 -                                                                             -
 -------------------------------------------------------------------------------
 SUBROUTINE                       CALLS  ASD         SELF TIME        TOTAL TIME
                                MAXIMUM       AVERAGE  MAXIMUM  AVERAGE  MAXIMUM
 CP2K                                 1  1.0    0.114    0.127   19.847   19.852
 qs_energies                          1  2.0    0.005    0.010   19.174   19.183
 scf_env_do_scf                       1  3.0    0.002    0.004   18.284   18.289
 scf_env_do_scf_inner_loop           23  4.0    0.009    0.012   18.281   18.286
 qs_ks_update_qs_env                 23  5.0    0.001    0.001    7.966    7.971
 rebuild_ks_matrix                   23  6.0    0.005    0.006    7.961    7.964
 qs_ks_build_kohn_sham_matrix        23  7.0    0.010    0.015    7.957    7.962
 rs_pw_transfer                     236  9.5    0.005    0.007    5.583    5.792
 qs_rho_update_rho                   24  5.0    0.000    0.001    5.681    5.684
 calculate_rho_elec                  24  6.0    0.022    0.024    5.680    5.683
 density_rs2pw                       24  7.0    0.004    0.005    4.258    4.477
 sum_up_and_integrate                23  8.0    0.025    0.033    4.127    4.131
 integrate_v_rspace                  23  9.0    0.001    0.003    4.102    4.113
 pw_transfer                        350  9.0    0.065    0.075    3.724    3.904
 fft_wrap_pw1pw2                    304 10.0    0.003    0.005    3.570    3.751
 potential_pw2rs                     23 10.0    0.003    0.003    3.737    3.750
 fft_wrap_pw1pw2_530                116 10.2    0.312    0.371    3.274    3.434
 fft3d_ps                           304 12.0    1.496    1.636    2.750    2.916
 qs_vxc_create                       23  8.0    0.003    0.005    2.658    2.745
 xc_vxc_pw_create                    23  9.0    0.068    0.084    2.655    2.742
 gspace_mixing                       21  5.0    0.019    0.022    2.474    2.476
 qs_scf_new_mos                      23  5.0    0.003    0.005    2.434    2.441
 eigensolver                         23  6.0    0.003    0.006    2.264    2.266
 xc_rho_set_and_dset_create          23 10.0    0.041    0.059    1.838    2.064
 rs_pw_transfer_RS2PW_530            25  8.9    1.143    1.323    1.852    2.054
 cp_fm_diag_elpa                     23  7.0    0.000    0.000    2.018    2.026
 cp_fm_redistribute_end              23  8.0    1.741    1.993    1.743    1.994
 cp_fm_diag_elpa_base                23  8.0    0.243    1.952    0.247    1.974
 rs_pw_transfer_PW2RS_530            23 12.0    1.212    1.261    1.877    1.921
 mp_waitany                        2090 11.4    1.375    1.886    1.375    1.886
 broyden_mixing                      21  6.0    1.811    1.845    1.846    1.864
 pw_nn_compose_r                    138 10.5    0.737    0.786    1.088    1.624
 grid_collocate_task_list            24  7.0    1.338    1.439    1.338    1.439
 xc_functional_eval                  23 11.0    0.000    0.001    1.162    1.383
 pbe_lda_eval                        23 12.0    1.162    1.383    1.162    1.383
 mp_alltoall_z22v                   304 14.0    0.939    1.301    0.939    1.301
 mp_sendrecv_dm2                    276 11.5    0.350    0.953    0.350    0.953
 mp_waitall_1                     20863 11.5    0.738    0.848    0.738    0.848
 yz_to_x                            144 12.5    0.115    0.169    0.562    0.804
 x_to_yz                            160 13.5    0.189    0.224    0.682    0.746
 mp_sum_d                           607  3.6    0.334    0.620    0.334    0.620
 init_scf_run                         1  3.0    0.002    0.003    0.584    0.588
 rs_pw_transfer_PW2RS_180            23 12.0    0.216    0.241    0.443    0.500
 rs_pw_transfer_PW2RS_60             23 12.0    0.117    0.179    0.378    0.408
 scf_env_initial_rho_setup            1  4.0    0.004    0.008    0.404    0.407
 pw_poisson_solve                    23  8.0    0.158    0.170    0.404    0.406
 -------------------------------------------------------------------------------

 The number of warnings for this run is : 2
 
 -------------------------------------------------------------------------------
  **** **** ******  **  PROGRAM ENDED AT                 2025-10-22 11:50:24.687
 ***** ** ***  *** **   PROGRAM RAN ON                                 nid003154
 **    ****   ******    PROGRAM RAN BY                                xr223_ukcp
 ***** **    ** ** **   PROGRAM PROCESS ID                                106783
  **** **  *******  **  PROGRAM STOPPED IN /mnt/lustre/a2fs-work3/work/e89/e89/x
                                           r223_ukcp/BINDING-ENERGY-DARREN/bindi
                                           ng-energy/2-leg/s+1.00/d+4.00
 DBCSR| CPU Multiplication driver                                           BLAS
 DBCSR| Multrec recursion limit                                              512
 DBCSR| Multiplication stack size                                           1000
 DBCSR| Maximum elements for images                                    UNLIMITED
 DBCSR| Multiplicative factor virtual images                                   1
 DBCSR| Use multiplication densification                                       T
 DBCSR| Multiplication size stacks                                             3
 DBCSR| Use memory pool for CPU allocation                                     F
 DBCSR| Number of 3D layers                                               SINGLE
 DBCSR| Use MPI memory allocation                                              F
 DBCSR| Use RMA algorithm                                                      F
 DBCSR| Use Communication thread                                               T
 DBCSR| Communication thread load                                             87
 DBCSR| MPI: My node id                                                        0
 DBCSR| MPI: Number of nodes                                                 128
 DBCSR| OMP: Current number of threads                                         1
 DBCSR| OMP: Max number of threads                                             1
 DBCSR| Split modifier for TAS multiplication algorithm                  1.0E+00


  **** **** ******  **  PROGRAM STARTED AT               2025-10-22 11:50:47.209
 ***** ** ***  *** **   PROGRAM STARTED ON                             nid003154
 **    ****   ******    PROGRAM STARTED BY                            xr223_ukcp
 ***** **    ** ** **   PROGRAM PROCESS ID                                110045
  **** **  *******  **  PROGRAM STARTED IN /mnt/lustre/a2fs-work3/work/e89/e89/x
                                           r223_ukcp/BINDING-ENERGY-DARREN/bindi
                                           ng-energy/2-leg/s+1.00/d+4.00

 CP2K| version string:                                          CP2K version 9.1
 CP2K| source code revision number:                                  git:d8d7100
 CP2K| cp2kflags: omp libint fftw3 libxc elpa parallel mpi3 scalapack plumed2 mk
 CP2K|            l
 CP2K| is freely available from                            https://www.cp2k.org/
 CP2K| Program compiled at                       Thu 08 Jun 2023 08:54:13 AM BST
 CP2K| Program compiled on                                                  ln03
 CP2K| Program compiled for                                              ARCHER2
 CP2K| Data directory path       /work/y07/shared/apps/core/cp2k/cp2k-9.1.0/data
 CP2K| Input file name                                              cp2k_sub.inp

 GLOBAL| Force Environment number                                              1
 GLOBAL| Basis set file name                                      GTH_BASIS_SETS
 GLOBAL| Potential file name                                           POTENTIAL
 GLOBAL| MM Potential file name                                     MM_POTENTIAL
 GLOBAL| Coordinate file name                                           init.pdb
 GLOBAL| Method name                                                        CP2K
 GLOBAL| Project name                                                    MAT-H2O
 GLOBAL| Run type                                                         ENERGY
 GLOBAL| FFT library                                                       FFTW3
 GLOBAL| Diagonalization library                                            ELPA
 GLOBAL| Minimum number of eigenvectors for ELPA usage                        16
 GLOBAL| Orthonormality check for eigenvectors                          DISABLED
 GLOBAL| Matrix multiplication library                                 ScaLAPACK
 GLOBAL| All-to-all communication in single precision                          F
 GLOBAL| FFTs using library dependent lengths                                  F
 GLOBAL| Grid backend                                                       AUTO
 GLOBAL| Global print level                                                  LOW
 GLOBAL| MPI I/O enabled                                                       T
 GLOBAL| Total number of message passing processes                           128
 GLOBAL| Number of threads for this process                                    1
 GLOBAL| This output is from process                                           0
 GLOBAL| Stack size for threads created by OpenMP (OMP_STACKSIZE)        default
 GLOBAL| CPU model name                          AMD EPYC 7742 64-Core Processor
 GLOBAL| CPUID                                                              1002

 MEMORY| system memory details [Kb]
 MEMORY|                        rank 0           min           max       average
 MEMORY| MemTotal            263266868     263266868     263266868     263266868
 MEMORY| MemFree             239850348     239850348     239850348     239850348
 MEMORY| Buffers                179148        179148        179148        179148
 MEMORY| Cached                1530980       1530980       1530980       1530980
 MEMORY| Slab                  4440580       4440580       4440580       4440580
 MEMORY| SReclaimable          1753912       1753912       1753912       1753912
 MEMORY| MemLikelyFree       243314388     243314388     243314388     243314388


 *******************************************************************************
 *******************************************************************************
 **                                                                           **
 **     #####                         ##              ##                      **
 **    ##   ##            ##          ##              ##                      **
 **   ##     ##                       ##            ######                    **
 **   ##     ##  ##   ##  ##   #####  ##  ##   ####   ##    #####    #####    **
 **   ##     ##  ##   ##  ##  ##      ## ##   ##      ##   ##   ##  ##   ##   **
 **   ##  ## ##  ##   ##  ##  ##      ####     ###    ##   ######   ######    **
 **    ##  ###   ##   ##  ##  ##      ## ##      ##   ##   ##       ##        **
 **     #######   #####   ##   #####  ##  ##  ####    ##    #####   ##        **
 **           ##                                                    ##        **
 **                                                                           **
 **                                                ... make the atoms dance   **
 **                                                                           **
 **            Copyright (C) by CP2K developers group (2000-2021)             **
 **                      J. Chem. Phys. 152, 194103 (2020)                    **
 **                                                                           **
 *******************************************************************************


 TOTAL NUMBERS AND MAXIMUM NUMBERS

  Total number of            - Atomic kinds:                                   3
                             - Atoms:                                         67
                             - Shell sets:                                    70
                             - Shells:                                       338
                             - Primitive Cartesian functions:                341
                             - Cartesian basis functions:                    938
                             - Spherical basis functions:                    872

  Maximum angular momentum of- Orbital basis functions:                        2
                             - Local part of the GTH pseudopotential:          2
                             - Non-local part of the GTH pseudopotential:      0


 SCF PARAMETERS         Density guess:                                   RESTART
                        --------------------------------------------------------
                        max_scf:                                              20
                        max_scf_history:                                       0
                        max_diis:                                              4
                        --------------------------------------------------------
                        eps_scf:                                        5.00E-07
                        eps_scf_history:                                0.00E+00
                        eps_diis:                                       1.00E-01
                        eps_eigval:                                     1.00E-05
                        --------------------------------------------------------
                        level_shift [a.u.]:                                 0.00
                        added MOs                                        20    0
                        --------------------------------------------------------
                        Mixing method:                            BROYDEN_MIXING
                                                charge density mixing in g-space
                        --------------------------------------------------------
                        Smear method:                                FERMI_DIRAC
                        Electronic temperature [K]:                        300.0
                        Electronic temperature [a.u.]:                  9.50E-04
                        Accuracy threshold:                             1.00E-10
                        --------------------------------------------------------
                        Outer loop SCF in use 
                        No variables optimised in outer loop
                        eps_scf                                         5.00E-07
                        max_scf                                               20
                        No outer loop optimization
                        step_size                                       5.00E-01

 Number of electrons:                                                        264
 Number of occupied orbitals:                                                132
 Number of molecular orbitals:                                               152

 Number of orbital functions:                                                872
 Number of independent orbital functions:                                    872

 Extrapolation method: initial_guess


 SCF WAVEFUNCTION OPTIMIZATION

  Step     Update method      Time    Convergence         Total energy    Change
  ------------------------------------------------------------------------------
     1 NoMix/Diag. 0.40E+00    0.5     0.00000221      -382.1966023981 -3.82E+02
     2 Broy./Diag. 0.40E+00    0.7     0.00000162      -382.1966029864 -5.88E-07
     3 Broy./Diag. 0.40E+00    0.7     0.00000017      -382.1966067301 -3.74E-06

  *** SCF run converged in     3 steps ***


  Electronic density on regular grids:       -264.0000000000        0.0000000000
  Core density on regular grids:              263.9999999998       -0.0000000002
  Total charge density on r-space grids:       -0.0000000002
  Total charge density g-space grids:          -0.0000000002

  Overlap energy of the core charge distribution:               0.00000793327650
  Self energy of the core charge distribution:               -897.78766230971098
  Core Hamiltonian energy:                                    278.64369633363663
  Hartree energy:                                             353.03165322656218
  Exchange-correlation energy:                               -115.90898523777176
  Dispersion energy:                                           -0.17531667605531
  Electronic entropic energy:                                  -0.00000000000000
  Fermi energy:                                                -0.06961239284374

  Total energy:                                              -382.19660673006274

  outer SCF iter =    1 RMS gradient =   0.17E-06 energy =       -382.1966067301
  outer SCF loop converged in   1 iterations or    3 steps


 ENERGY| Total FORCE_EVAL ( QS ) energy [a.u.]:             -382.196606730062740

 -------------------------------------------------------------------------------
 -                                                                             -
 -                                DBCSR STATISTICS                             -
 -                                                                             -
 -------------------------------------------------------------------------------
 COUNTER                                    TOTAL       BLAS       SMM       ACC
 flops     9 x    24 x     9                15552     100.0%      0.0%      0.0%
 flops     9 x    24 x    22                19008     100.0%      0.0%      0.0%
 flops    22 x    24 x     9                19008     100.0%      0.0%      0.0%
 flops    22 x    24 x    22                23232     100.0%      0.0%      0.0%
 flops     9 x    22 x    24                38016     100.0%      0.0%      0.0%
 flops    22 x     9 x    24                38016     100.0%      0.0%      0.0%
 flops     9 x     9 x    24                46656     100.0%      0.0%      0.0%
 flops     9 x    32 x     9                82944     100.0%      0.0%      0.0%
 flops    22 x    22 x    24                92928     100.0%      0.0%      0.0%
 flops    22 x    32 x     9               101376     100.0%      0.0%      0.0%
 flops     9 x    32 x    22               101376     100.0%      0.0%      0.0%
 flops    22 x    32 x    22               123904     100.0%      0.0%      0.0%
 flops     9 x    22 x    32               202752     100.0%      0.0%      0.0%
 flops    22 x     9 x    32               202752     100.0%      0.0%      0.0%
 flops     9 x     9 x    32               248832     100.0%      0.0%      0.0%
 flops    22 x    22 x    32               495616     100.0%      0.0%      0.0%
 flops     9 x    24 x    13               718848     100.0%      0.0%      0.0%
 flops    13 x    24 x     9               718848     100.0%      0.0%      0.0%
 flops    13 x    24 x    22               878592     100.0%      0.0%      0.0%
 flops    22 x    24 x    13               878592     100.0%      0.0%      0.0%
 flops     9 x    13 x    24              1437696     100.0%      0.0%      0.0%
 flops    13 x     9 x    24              1437696     100.0%      0.0%      0.0%
 flops    22 x    13 x    24              1757184     100.0%      0.0%      0.0%
 flops    13 x    22 x    24              1757184     100.0%      0.0%      0.0%
 flops    13 x    32 x     9              3833856     100.0%      0.0%      0.0%
 flops     9 x    32 x    13              3833856     100.0%      0.0%      0.0%
 flops    22 x    32 x    13              4685824     100.0%      0.0%      0.0%
 flops    13 x    32 x    22              4685824     100.0%      0.0%      0.0%
 flops     9 x    13 x    32              7667712     100.0%      0.0%      0.0%
 flops    13 x     9 x    32              7667712     100.0%      0.0%      0.0%
 flops    22 x    13 x    32              9371648     100.0%      0.0%      0.0%
 flops    13 x    22 x    32              9371648     100.0%      0.0%      0.0%
 flops    13 x    24 x    13             33226752     100.0%      0.0%      0.0%
 flops    13 x    13 x    24             67491840     100.0%      0.0%      0.0%
 flops    13 x    32 x    13            177209344     100.0%      0.0%      0.0%
 flops    13 x    13 x    32            359956480     100.0%      0.0%      0.0%
 flops inhomo. stacks                           0       0.0%      0.0%      0.0%
 flops total                       700.439104E+06     100.0%      0.0%      0.0%
 flops max/rank                     12.663040E+06     100.0%      0.0%      0.0%
 matmuls inhomo. stacks                         0       0.0%      0.0%      0.0%
 matmuls total                              68005     100.0%      0.0%      0.0%
 number of processed stacks                  5145     100.0%      0.0%      0.0%
 average stack size                                    13.2       0.0       0.0
 marketing flops                     1.034122E+09
 -------------------------------------------------------------------------------
 # multiplications                              5
 max memory usage/rank             311.304192E+06
 # max total images/rank                        2
 # max 3D layers                                1
 # MPI messages exchanged                   18560
 MPI messages size (bytes):
  total size                       191.979520E+06
  min size                           0.000000E+00
  max size                          60.840000E+03
  average size                      10.343725E+03
 MPI breakdown and total messages size (bytes):
             size <=      128               11440                        0
       128 < size <=     8192                   0                        0
      8192 < size <=    32768                5200                100733440
     32768 < size <=   131072                1920                 91246080
    131072 < size <=  4194304                   0                        0
   4194304 < size <= 16777216                   0                        0
  16777216 < size                               0                        0
 -------------------------------------------------------------------------------

 *** WARNING in dbcsr_mm.F:294 :: Using a non-square number of MPI ranks ***
 *** might lead to poor performance. Used ranks: 128 Suggested: 121 256  ***

 -------------------------------------------------------------------------------
 -                                                                             -
 -                      DBCSR MESSAGE PASSING PERFORMANCE                      -
 -                                                                             -
 -------------------------------------------------------------------------------
 ROUTINE             CALLS      AVE VOLUME [Bytes]
 MP_Bcast               37                     12.
 MP_Allreduce          120                     21.
 MP_Alltoall           133                  50888.
 MP_ISend              320                   5897.
 MP_IRecv              320                   5177.
 -------------------------------------------------------------------------------

 -------------------------------------------------------------------------------
 -                                                                             -
 -                                GRID STATISTICS                              -
 -                                                                             -
 -------------------------------------------------------------------------------
 LP    KERNEL             BACKEND                              COUNT     PERCENT
 4     collocate ortho    REF                                 188216      51.63%
 4     integrate ortho    REF                                 141162      38.72%
 0     collocate general  REF                                   8576       2.35%
 2     collocate ortho    REF                                   7956       2.18%
 3     collocate ortho    REF                                   6480       1.78%
 2     integrate ortho    REF                                   5967       1.64%
 3     integrate ortho    REF                                   4860       1.33%
 1     collocate ortho    REF                                    456       0.13%
 1     integrate ortho    REF                                    342       0.09%
 0     collocate ortho    REF                                    320       0.09%
 0     integrate ortho    REF                                    240       0.07%
 -------------------------------------------------------------------------------

 MEMORY| Estimated peak process memory [MiB]                                 299

 -------------------------------------------------------------------------------
 -                                                                             -
 -                         MESSAGE PASSING PERFORMANCE                         -
 -                                                                             -
 -------------------------------------------------------------------------------

 ROUTINE             CALLS      AVE VOLUME [Bytes]
 MP_Group                5
 MP_Bcast              285                2284788.
 MP_Allreduce          362                   2688.
 MP_Sync                13
 MP_Alltoall            68                2687924.
 MP_SendRecv            36                 409600.
 MP_ISendRecv         2667                  24960.
 MP_Wait              3057
 MP_comm_split           4
 MP_ISend              330                 377187.
 MP_IRecv              330                 377834.
 MP_Recv                15                  69760.
 -------------------------------------------------------------------------------


 -------------------------------------------------------------------------------
 -                                                                             -
 -                           R E F E R E N C E S                               -
 -                                                                             -
 -------------------------------------------------------------------------------
 
 CP2K version 9.1, the CP2K developers group (2021).
 CP2K is freely available from https://www.cp2k.org/ .

 Kuehne,Thomas D.; Iannuzzi,Marcella; Del Ben,Mauro;
 Rybkin,Vladimir V.; Seewald,Patrick; Stein,Frederick; Laino,Teodoro;
 Khaliullin,Rustam Z.; Schuett,Ole; Schiffmann,Florian; Golze,Dorothea;
 Wilhelm,Jan; Chulkov,Sergey; Bani-Hashemian,Mohammad Hossein;
 Weber,Valery; Borstnik,Urban; Taillefumier,Mathieu;
 Jakobovits,Alice Shoshana; Lazzaro,Alfio; Pabst,Hans; Mueller,Tiziano;
 Schade,Robert; Guidon,Manuel; Andermatt,Samuel; Holmberg,Nico;
 Schenter,Gregory K.; Hehn,Anna; Bussy,Augustin; Belleflamme,Fabian;
 Tabacchi,Gloria; Gloess,Andreas; Lass,Michael; Bethune,Iain;
 Mundy,Christopher J.; Plessl,Christian; Watkins,Matt;
 VandeVondele,Joost; Krack,Matthias; Hutter,Juerg. 
 The Journal of Chemical Physics, 152 (19), (2020). 
 CP2K: An electronic structure and molecular dynamics software package -
 Quickstep: Efficient and accurate electronic structure calculations.
 https://doi.org/10.1063/5.0007045

 Goerigk, Lars; Hansen, Andreas; Bauer, Christoph; Ehrlich, Stephan;
 Najibi, Asim; Grimme, Stefan. , 19 (48), (2017). 
 A look at the density functional theory zoo with the advanced GMTKN55 database
 for general main group thermochemistry, kinetics and noncovalent interactions.
 https://doi.org/10.1039/C7CP04913G

 Schuett, Ole; Messmer, Peter; Hutter, Juerg; VandeVondele, Joost. 
 Electronic Structure Calculations on Graphics Processing Units, John
 Wiley & Sons, Ltd, 173-190 (2016). 
 GPU-Accelerated Sparse Matrix-Matrix Multiplication for
 Linear Scaling Density Functional Theory.
 https://doi.org/10.1002/9781118670712.ch8

 Borstnik, U; VandeVondele, J; Weber, V; Hutter, J. 
 PARALLEL COMPUTING, 40 (5-6), 47-58 (2014). 
 Sparse matrix multiplication: The distributed block-compressed sparse
 row library.
 https://doi.org/10.1016/j.parco.2014.03.012

 Hutter, J; Iannuzzi, M; Schiffmann, F; VandeVondele, J. 
 WIREs Comput Mol Sci., 4 (1), 15-25 (2014). 
 CP2K: atomistic simulations of condensed matter systems.
 https://doi.org/10.1002/wcms.1159

 Marek, A; Blum, V; Johanni, R; Havu, V; Lang, B; Auckenthaler, T;
 Heinecke, A; Bungartz, H; Lederer, H. 
 Journal of Physics: Condensed Matter, 26 (21), (2014). 
 The ELPA library: scalable parallel eigenvalue solutions for
 electronic structure
 theory and computational science.
 https://doi.org/10.1088/0953-8984/26/21/213201

 Grimme, S; Ehrlich, S; Goerigk, L. 
 JOURNAL OF COMPUTATIONAL CHEMISTRY, 32, 1456 (2011). 
 Effect of the damping function in dispersion corrected density functional theory.
 https://doi.org/10.1002/jcc.21759

 Grimme, S; Antony, J; Ehrlich, S; Krieg, H. 
 JOURNAL OF CHEMICAL PHYSICS, 132 (15), 154104 (2010). 
 A consistent and accurate ab initio parametrization of density
 functional dispersion correction (DFT-D) for the 94 elements H-Pu.
 https://doi.org/10.1063/1.3382344

 VandeVondele, J; Hutter, J. 
 JOURNAL OF CHEMICAL PHYSICS, 127 (11), 114105 (2007). 
 Gaussian basis sets for accurate calculations on molecular systems in
 gas and condensed phases.
 https://doi.org/10.1063/1.2770708

 Krack, M. 
 THEORETICAL CHEMISTRY ACCOUNTS, 114 (1-3), 145-152 (2005). 
 Pseudopotentials for H to Kr optimized for gradient-corrected
 exchange-correlation functionals.
 https://doi.org/10.1007/s00214-005-0655-y

 VandeVondele, J; Krack, M; Mohamed, F; Parrinello, M; Chassaing, T;
 Hutter, J. COMPUTER PHYSICS COMMUNICATIONS, 167 (2), 103-128 (2005). 
 QUICKSTEP: Fast and accurate density functional calculations using a
 mixed Gaussian and plane waves approach.
 https://doi.org/10.1016/j.cpc.2004.12.014

 Frigo, M; Johnson, SG. 
 PROCEEDINGS OF THE IEEE, 93 (2), 216-231 (2005). 
 The design and implementation of FFTW3.
 https://doi.org/10.1109/JPROC.2004.840301

 Hartwigsen, C; Goedecker, S; Hutter, J. 
 PHYSICAL REVIEW B, 58 (7), 3641-3662 (1998). 
 Relativistic separable dual-space Gaussian pseudopotentials from H to Rn.
 https://doi.org/10.1103/PhysRevB.58.3641

 Zhang, YK; Yang, WT. 
 PHYSICAL REVIEW LETTERS, 80 (4), 890-890 (1998). 
 Comment on Generalized gradient approximation made simple.
 https://doi.org/10.1103/PhysRevLett.80.890

 Lippert, G; Hutter, J; Parrinello, M. 
 MOLECULAR PHYSICS, 92 (3), 477-487 (1997). 
 A hybrid Gaussian and plane wave density functional scheme.
 https://doi.org/10.1080/002689797170220

 Perdew, JP; Burke, K; Ernzerhof, M. 
 PHYSICAL REVIEW LETTERS, 77 (18), 3865-3868 (1996). 
 Generalized gradient approximation made simple.
 https://doi.org/10.1103/PhysRevLett.77.3865

 Goedecker, S; Teter, M; Hutter, J. 
 PHYSICAL REVIEW B, 54 (3), 1703-1710 (1996). 
 Separable dual-space Gaussian pseudopotentials.
 https://doi.org/10.1103/PhysRevB.54.1703


 -------------------------------------------------------------------------------
 -                                                                             -
 -                                T I M I N G                                  -
 -                                                                             -
 -------------------------------------------------------------------------------
 SUBROUTINE                       CALLS  ASD         SELF TIME        TOTAL TIME
                                MAXIMUM       AVERAGE  MAXIMUM  AVERAGE  MAXIMUM
 CP2K                                 1  1.0    0.117    0.131    3.895    3.898
 qs_energies                          1  2.0    0.006    0.012    3.245    3.254
 scf_env_do_scf                       1  3.0    0.001    0.002    2.260    2.266
 scf_env_do_scf_inner_loop            3  4.0    0.010    0.012    2.259    2.266
 qs_ks_update_qs_env                  3  5.0    0.000    0.000    1.069    1.075
 rebuild_ks_matrix                    3  6.0    0.003    0.004    1.067    1.069
 qs_ks_build_kohn_sham_matrix         3  7.0    0.005    0.010    1.064    1.068
 rs_pw_transfer                      36  9.2    0.001    0.001    0.995    1.038
 qs_rho_update_rho                    4  5.0    0.000    0.001    1.002    1.005
 calculate_rho_elec                   4  6.0    0.004    0.005    1.002    1.005
 density_rs2pw                        4  7.0    0.002    0.004    0.762    0.798
 init_scf_run                         1  3.0    0.002    0.003    0.677    0.680
 pw_transfer                         51  8.9    0.009    0.011    0.587    0.633
 fft_wrap_pw1pw2                     45  9.9    0.001    0.001    0.566    0.610
 sum_up_and_integrate                 3  8.0    0.005    0.007    0.572    0.576
 integrate_v_rspace                   3  9.0    0.000    0.001    0.568    0.571
 fft_wrap_pw1pw2_530                 17 10.2    0.047    0.056    0.513    0.548
 potential_pw2rs                      3 10.0    0.000    0.001    0.515    0.519
 scf_env_initial_rho_setup            1  4.0    0.004    0.007    0.500    0.503
 fft3d_ps                            45 11.9    0.213    0.241    0.441    0.483
 rs_pw_transfer_RS2PW_530             5  8.6    0.211    0.245    0.437    0.471
 mp_waitany                         330 11.1    0.343    0.442    0.343    0.442
 qs_scf_new_mos                       3  5.0    0.001    0.003    0.350    0.353
 qs_vxc_create                        3  8.0    0.003    0.005    0.330    0.343
 cp_fm_diag_elpa                      4  7.2    0.000    0.001    0.337    0.341
 xc_vxc_pw_create                     3  9.0    0.010    0.013    0.327    0.340
 eigensolver                          3  6.0    0.000    0.002    0.326    0.327
 qs_init_subsys                       1  2.0    0.008    0.014    0.309    0.317
 qs_energies_init_hamiltonians        1  3.0    0.005    0.008    0.292    0.297
 cp_fm_redistribute_end               4  8.2    0.251    0.288    0.252    0.288
 cp_fm_diag_elpa_base                 4  8.1    0.034    0.278    0.034    0.281
 rs_pw_transfer_PW2RS_530             3 12.0    0.139    0.150    0.257    0.270
 xc_rho_set_and_dset_create           3 10.0    0.005    0.008    0.235    0.261
 grid_collocate_task_list             4  7.0    0.224    0.241    0.224    0.241
 qs_env_update_s_mstruct              1  4.0    0.000    0.001    0.220    0.237
 mp_alltoall_z22v                    45 13.9    0.179    0.225    0.179    0.225
 calculate_rho_core                   1  5.0    0.007    0.011    0.193    0.210
 pw_nn_compose_r                     18 10.5    0.096    0.103    0.140    0.206
 xc_functional_eval                   3 11.0    0.000    0.000    0.149    0.172
 pbe_lda_eval                         3 12.0    0.149    0.172    0.149    0.172
 calculate_first_density_matrix       1  5.0    0.003    0.005    0.165    0.168
 qs_dispersion_pairpot_init           1  3.0    0.009    0.135    0.134    0.158
 mp_waitall_1                      3287 11.5    0.127    0.158    0.127    0.158
 cp_fm_cholesky_decompose             1  4.0    0.149    0.155    0.149    0.155
 qs_env_setup                         1  3.0    0.003    0.006    0.135    0.149
 yz_to_x                             24 12.3    0.019    0.027    0.111    0.146
 mp_bcast_dv                          7  7.9    0.123    0.142    0.123    0.142
 qs_env_rebuild_pw_env                2  3.5    0.002    0.003    0.125    0.140
 pw_env_rebuild                       1  5.0    0.006    0.010    0.123    0.136
 x_to_yz                             21 13.5    0.025    0.030    0.112    0.133
 mp_sendrecv_dm2                     36 11.5    0.044    0.118    0.044    0.118
 create_qs_kind_set                   1  2.0    0.000    0.001    0.103    0.118
 read_qs_kind                         3  3.0    0.044    0.053    0.102    0.117
 gspace_mixing                        2  5.0    0.002    0.004    0.113    0.116
 make_basis_lowdin                    1  6.0    0.003    0.004    0.105    0.109
 pw_grid_setup                        5  6.0    0.001    0.002    0.099    0.101
 pw_grid_setup_internal               5  7.0    0.008    0.010    0.099    0.101
 rs_pw_transfer_PW2RS_180             3 12.0    0.024    0.029    0.071    0.099
 parser_read_line                  9939  4.0    0.004    0.004    0.077    0.092
 parser_read_line_low                15  5.1    0.007    0.041    0.073    0.088
 broadcast_input_information         15  6.1    0.000    0.000    0.066    0.082
 -------------------------------------------------------------------------------

 The number of warnings for this run is : 1
 
 -------------------------------------------------------------------------------
  **** **** ******  **  PROGRAM ENDED AT                 2025-10-22 11:50:59.184
 ***** ** ***  *** **   PROGRAM RAN ON                                 nid003154
 **    ****   ******    PROGRAM RAN BY                                xr223_ukcp
 ***** **    ** ** **   PROGRAM PROCESS ID                                110045
  **** **  *******  **  PROGRAM STOPPED IN /mnt/lustre/a2fs-work3/work/e89/e89/x
                                           r223_ukcp/BINDING-ENERGY-DARREN/bindi
                                           ng-energy/2-leg/s+1.00/d+4.00
