LAMMPS data file via write_data, version 4 Feb 2025, timestep = 50000, units = metal

9540 atoms
3 atom types

0 154.00799999999998 xlo xhi
0 148.2 ylo yhi
0 151.07609208607428 zlo zhi

Masses

1 12.01099999691024
2 1.007999999740698
3 15.99899999588435

Atoms # full

7265 0 1 0 3.7798312454034404 1.949442027016297 87.33338105909083 1 0 0
7314 0 1 0 2.37938576424086 1.9466810355155721 87.1362215058772 1 0 0
7986 0 1 0 4.533305571303862 3.1578593042790084 87.24670299175929 1 0 0
7313 0 1 0 1.68072343313602 0.6925387273863388 87.15207541515309 1 0 0
7315 0 1 0 1.653809852776522 3.1486140924096273 87.1078126748262 1 0 0
7984 0 1 0 4.4531761677256645 0.7121410429121712 87.55209616574419 1 0 0
7304 0 1 0 0.2596448638797206 0.6483792959927883 87.13302181719988 1 0 0
7306 0 1 0 0.22989641957572735 3.1139380149202633 87.01662864645395 1 0 0
7267 0 1 0 3.800312790865532 4.366922029544523 87.14574378605822 1 0 0
7316 0 1 0 2.3679223340351045 4.359429076464569 87.12122345026145 1 0 0
7995 0 1 0 5.924077850011732 3.1651743690487812 87.36588681552941 1 0 0
7993 0 1 0 5.878660233643067 0.6776083080804685 87.58955424547742 1 0 0
7994 0 1 0 6.647813103473458 1.8905218176939955 87.56311026602121 1 0 0
8004 0 1 0 8.8685617543492 0.7085341726387213 87.83752638192321 1 0 0
8005 0 1 0 8.10698121112525 1.8926531532557298 87.62921214135659 1 0 0
8006 0 1 0 8.803171333402483 3.170358207691982 87.6868378963613 1 0 0
7996 0 1 0 6.679544915229599 4.3860779619409875 87.21716851553796 1 0 0
8007 0 1 0 8.057273104438455 4.390592533847988 87.45952977130835 1 0 0
8013 0 1 0 10.253135231694753 0.7335026171567446 87.96801897085831 1 0 0
8014 0 1 0 10.945887006998879 1.9704999045770106 87.9579873771553 1 0 0
8015 0 1 0 10.199040377294814 3.186689712511395 87.8410704865055 1 0 0
8024 0 1 0 13.064246314864157 0.6908661311972525 87.94514774171041 1 0 0
8025 0 1 0 12.410094480372972 1.9811302480177202 88.00019070727119 1 0 0
8026 0 1 0 13.105599870522042 3.222265712651264 87.87269556421116 1 0 0
8016 0 1 0 10.942031870517882 4.452518280560545 87.80762169690371 1 0 0
8027 0 1 0 12.372513076181379 4.454516466680233 87.78851737842388 1 0 0
8033 0 1 0 14.506825675840423 0.6764809283722218 87.79458019270655 1 0 0
8035 0 1 0 14.489485162244236 3.166620403913752 87.70382574025295 1 0 0
73 0 1 0 18.784184260556643 0.6667512084739547 87.33672408728927 0 0 0
75 0 1 0 18.744682728615967 3.143188411467223 87.1429907449741 0 0 0
8034 0 1 0 15.21806424504097 1.9073543507527053 87.73489237381926 1 0 0
66 0 1 0 17.36457247054739 3.1884755864218794 87.31358457299089 0 0 0
64 0 1 0 17.349735718022302 0.6822362530306537 87.62407311499616 0 0 0
7985 0 1 0 16.671828899109755 1.939025827894812 87.5423510853197 1 0 0
7987 0 1 0 16.59531725723597 4.387729695303605 87.34222073484882 1 0 0
8036 0 1 0 15.186532952886498 4.37169710461163 87.4274081754067 1 0 0
7308 0 1 0 0.2420161805703081 5.585631807280301 86.92126327388553 1 0 0
7318 0 1 0 2.3818519179298376 6.876461173952156 87.13658418870293 1 0 0
7319 0 1 0 1.6004501532918087 8.087511779219044 87.0978319413888 1 0 0
7269 0 1 0 3.786079716593317 6.86915350840382 87.21464222149363 1 0 0
7317 0 1 0 1.6654912501225596 5.635566282267841 87.1364287362449 1 0 0
7988 0 1 0 4.53572493252502 5.635262568453776 87.10520924598626 1 0 0
7990 0 1 0 4.527277006359262 8.120138457937331 87.1330734348248 1 0 0
7310 0 1 0 0.15900875269922154 8.038583189351284 87.0608611368384 1 0 0
7999 0 1 0 5.951539488495079 8.110649141003544 86.98481386102216 1 0 0
7997 0 1 0 5.972190434567442 5.6762199047429975 87.06587351244836 1 0 0
7998 0 1 0 6.646019542356086 6.898785467931232 87.0278959604279 1 0 0
8009 0 1 0 8.103400144194593 6.862149420798383 87.24795645417586 1 0 0
8010 0 1 0 8.788985209181266 8.116953628719564 87.25723439483382 1 0 0
8008 0 1 0 8.764491335115027 5.615287237120899 87.54898109410857 1 0 0
8030 0 1 0 13.005271335647073 8.105536058161345 87.20841363659444 1 0 0
8019 0 1 0 10.21622184274958 8.077455042038817 87.35171793902664 1 0 0
8017 0 1 0 10.209017832667278 5.647811516633666 87.66701759533689 1 0 0
8018 0 1 0 10.889043057604747 6.875888693886784 87.56176040285804 1 0 0
8028 0 1 0 13.073569623351508 5.673577683141036 87.59377142710589 1 0 0
8029 0 1 0 12.302493309501193 6.895031195230254 87.418455739865 1 0 0
8039 0 1 0 14.5134552122572 8.09521059626869 87.17502415900405 1 0 0
8037 0 1 0 14.523846892292323 5.660742382456661 87.46492550020638 1 0 0
79 0 1 0 18.740629855560904 8.07286761038856 86.75041469030765 0 0 0
77 0 1 0 18.760499899602735 5.601989049778571 86.99257710203932 0 0 0
68 0 1 0 17.32766218154162 5.598562046150726 87.06359313342026 0 0 0
7989 0 1 0 16.660881771719183 6.837713251018848 87.03188833224507 1 0 0
70 0 1 0 17.299887568320294 8.118728744479062 86.92612592337457 0 0 0
8038 0 1 0 15.206319932562936 6.861501761854843 87.23496575427453 1 0 0
7372 0 1 0 2.336136348793651 11.788113678171058 87.0558966930002 1 0 0
7371 0 1 0 1.5949635811358698 10.536605061924472 87.02485610275191 1 0 0
7323 0 1 0 3.7628015150162177 11.845369718107667 87.01484951941582 1 0 0
7261 0 1 0 3.759786857957736 9.33848744738129 87.16979139417441 1 0 0
7320 0 1 0 2.3169457272588154 9.2553335446637 87.08537277950394 1 0 0
8044 0 1 0 4.4763502822194825 13.057728760216001 86.90664838938056 1 0 0
7373 0 1 0 1.6730579076938077 13.01519643228241 86.91865178289244 1 0 0
8042 0 1 0 4.492078608550454 10.593898788605355 87.11418094261906 1 0 0
7364 0 1 0 0.23163200348230906 13.03685439189511 86.8790571616761 1 0 0
7362 0 1 0 0.2001835903052037 10.540118152973648 86.96259201768648 1 0 0
8062 0 1 0 8.77284578120267 10.597578800198788 87.00656788404983 1 0 0
8064 0 1 0 8.752743787001746 13.031652961809508 86.73194673106612 1 0 0
8053 0 1 0 5.91501696905694 13.037837402874542 86.87516530374654 1 0 0
8000 0 1 0 6.696405133503363 9.394003645645663 87.03345501228388 1 0 0
8001 0 1 0 8.110364879165385 9.33647820540465 87.04987556468365 1 0 0
8051 0 1 0 5.914526380208203 10.620816337749183 86.99831491416167 1 0 0
8063 0 1 0 8.093233568791774 11.793544941061382 86.87408739869798 1 0 0
8052 0 1 0 6.644518688914733 11.827350377011134 86.9896711162698 1 0 0
8083 0 1 0 12.299521328076345 11.790118315615915 86.88738519600145 1 0 0
8084 0 1 0 13.099576686303319 12.973288252002728 86.78375293979512 1 0 0
8082 0 1 0 13.057638377778847 10.569571156738998 86.99712891711941 1 0 0
8072 0 1 0 10.876550056726899 11.75658125731463 86.95401469770518 1 0 0
8021 0 1 0 12.316760869160817 9.369193192807234 87.14488461235726 1 0 0
8073 0 1 0 10.194814663743863 13.015109996552251 86.77555715206425 1 0 0
8071 0 1 0 10.177022219301755 10.547463928656821 87.07221969216924 1 0 0
8020 0 1 0 10.928762436183625 9.319965080003437 87.25891252613218 1 0 0
8091 0 1 0 14.482419532853307 10.53466711664159 86.9953282185742 1 0 0
8093 0 1 0 14.51227910104732 12.972712563712925 86.77733450946278 1 0 0
131 0 1 0 18.776428195846393 10.52950300204438 86.68614680125711 0 0 0
133 0 1 0 18.77098482001999 13.029122158157062 86.58949088891335 0 0 0
122 0 1 0 17.346323391041533 10.552737094894363 86.815184982832 0 0 0
7981 0 1 0 16.615653736502146 9.360985437299965 86.95431815243951 1 0 0
124 0 1 0 17.350275867407714 13.053783668947638 86.61787957278192 0 0 0
8092 0 1 0 15.238444183089078 11.770580021002646 86.88682878400486 1 0 0
8043 0 1 0 16.63676631123092 11.80393524368077 86.74618472619619 1 0 0
8040 0 1 0 15.185525308509423 9.322604994335219 87.07152929258862 1 0 0
7376 0 1 0 2.3329247913320055 16.74705867836784 86.68551154102975 1 0 0
8046 0 1 0 4.4738757741493105 15.485491476241137 86.5939414108875 1 0 0
7327 0 1 0 3.739029291031121 16.739003180739385 86.56131899795838 1 0 0
7374 0 1 0 2.3181133193653856 14.299284809962787 86.88438218072818 1 0 0
7375 0 1 0 1.6258354977048377 15.51653634597208 86.77157991841419 1 0 0
7325 0 1 0 3.749527527970281 14.312116253378415 86.83256073899206 1 0 0
7377 0 1 0 1.6142091043784976 17.961541914968254 86.56392059093818 1 0 0
8048 0 1 0 4.470384970288829 17.97310586118897 86.50032893065892 1 0 0
7368 0 1 0 0.17168235958218647 17.999865518052413 86.5873691274918 1 0 0
7366 0 1 0 0.18016275605611334 15.524178422631103 86.82099624470236 1 0 0
8066 0 1 0 8.816046074615995 15.477293556638566 86.6274374459075 1 0 0
8068 0 1 0 8.82033348320823 17.95620342526984 86.59797520897988 1 0 0
8056 0 1 0 6.655797998250518 16.731215017556952 86.60566165985067 1 0 0
8054 0 1 0 6.560139107109715 14.281738263098026 86.67800305901707 1 0 0
8067 0 1 0 8.097982603761668 16.714036495948047 86.64835746067669 1 0 0
8065 0 1 0 8.037524520618707 14.301540190773979 86.59395308949435 1 0 0
8057 0 1 0 5.862817547488916 17.970112340966885 86.52611777815558 1 0 0
8055 0 1 0 5.940224033793057 15.506894488724347 86.59839557501417 1 0 0
8075 0 1 0 10.245344905502874 15.443470587645889 86.5880174810342 1 0 0
8074 0 1 0 10.914720656226647 14.218875340965146 86.64203642462746 1 0 0
8086 0 1 0 13.073643954057083 15.472757818818621 86.50378567602937 1 0 0
8087 0 1 0 12.319185516075635 16.68783155249475 86.49439702029481 1 0 0
8088 0 1 0 13.058848096268079 17.94852583810472 86.49322582137775 1 0 0
8076 0 1 0 10.944686082183527 16.646585362850693 86.5365427926725 1 0 0
8085 0 1 0 12.368916986512644 14.218253968464628 86.54694754714713 1 0 0
8077 0 1 0 10.239119131360187 17.937835014222397 86.48689009570417 1 0 0
8097 0 1 0 14.456702733928632 17.93209061450083 86.4235886856508 1 0 0
8095 0 1 0 14.474090571757927 15.463728884492689 86.46262671245819 1 0 0
128 0 1 0 17.357587085564514 17.948055959838033 86.40618867044937 0 0 0
137 0 1 0 18.77525413435491 17.95190375134035 86.26670686709559 0 0 0
135 0 1 0 18.78066407742111 15.504013181994829 86.41238773754338 0 0 0
8047 0 1 0 16.64248321096194 16.710831075750352 86.47049421119338 1 0 0
126 0 1 0 17.34271988095006 15.493534544110389 86.47805865538093 0 0 0
8096 0 1 0 15.18794077979999 16.708001025540906 86.40624855928203 1 0 0
8045 0 1 0 16.628521189211533 14.263628519699788 86.54649581746577 1 0 0
8094 0 1 0 15.23154074123286 14.247928569103806 86.63139469061943 1 0 0
8203 0 1 0 12.389977054545723 36.42786273074534 85.72881609207879 1 0 0
7380 0 1 0 2.3231509079464154 21.625384432702806 86.26142937615677 1 0 0
7378 0 1 0 2.37622132493533 19.19274118505902 86.45527075076244 1 0 0
7379 0 1 0 1.6545643503390155 20.393901118251843 86.37988930364153 1 0 0
7329 0 1 0 3.7845822621523064 19.2098944492887 86.53461197470943 1 0 0
8050 0 1 0 4.490501713399415 20.416332982373852 86.27162236426591 1 0 0
7321 0 1 0 3.771107445530362 21.65560143590822 86.17121567111653 1 0 0
8102 0 1 0 4.491638652316785 22.914140751376863 86.29948248976767 1 0 0
7431 0 1 0 1.6564871979417926 22.90143885839429 86.3002196838472 1 0 0
7370 0 1 0 0.17146793434463717 20.440791038781033 86.45130829464932 1 0 0
7422 0 1 0 0.22812827565107918 22.893748334034164 86.32100110695305 1 0 0
8070 0 1 0 8.79219668506317 20.439861227816166 86.47697155986114 1 0 0
8122 0 1 0 8.74243944252856 22.905020936130928 86.38331484316653 1 0 0
8069 0 1 0 8.061124309787198 19.216881312149827 86.61333879658139 1 0 0
8060 0 1 0 6.616336680039156 21.680737074996628 86.3229283737346 1 0 0
8061 0 1 0 8.072274040159195 21.669096359796914 86.44651621641177 1 0 0
8058 0 1 0 6.610291414037192 19.210187579396255 86.55579430050678 1 0 0
8059 0 1 0 5.919427897266088 20.41882629936848 86.43191984217599 1 0 0
8111 0 1 0 5.877831781088258 22.902087725511134 86.27367746718002 1 0 0
8081 0 1 0 12.306163554477495 21.648462678391542 86.19116956356432 1 0 0
8090 0 1 0 13.037459157658144 20.40966154012006 86.3010307135309 1 0 0
8142 0 1 0 13.053339464843084 22.938281876331345 86.13306660590625 1 0 0
8089 0 1 0 12.340932534450904 19.20175018841137 86.39269089134362 1 0 0
8079 0 1 0 10.188875080468597 20.365167710554076 86.4535956320312 1 0 0
8078 0 1 0 10.896131359179497 19.164654405401528 86.48420389983717 1 0 0
8080 0 1 0 10.911821556431097 21.636353241138234 86.27854494650546 1 0 0
8131 0 1 0 10.21004025134519 22.91037097883277 86.31383241643071 1 0 0
8099 0 1 0 14.451268430408435 20.360796160849507 86.31481814703817 1 0 0
8151 0 1 0 14.4354088450473 22.968370945128676 86.05868564264038 1 0 0
130 0 1 0 17.325372589039453 20.392010943636397 86.26705042895853 0 0 0
139 0 1 0 18.792575563663153 20.379072041091902 86.17457871703317 0 0 0
8041 0 1 0 16.55787871513431 21.60689736084448 86.12358327584492 1 0 0
182 0 1 0 17.29893146881547 22.83439891758216 86.03670738772486 0 0 0
191 0 1 0 18.720674676037362 22.864261491919923 86.0832970768245 0 0 0
8049 0 1 0 16.61071499419474 19.16762178915698 86.41574950302595 1 0 0
8100 0 1 0 15.181976549965853 21.63710852732327 86.10821849879929 1 0 0
8098 0 1 0 15.183137413788934 19.140593215413464 86.42060173767584 1 0 0
7424 0 1 0 0.21294409061382705 25.361627984432676 86.03542351699637 1 0 0
7433 0 1 0 1.6213350719185722 25.358619354126546 86.02562808830923 1 0 0
7434 0 1 0 2.356367797113097 26.590514139357143 85.95862777381731 1 0 0
7383 0 1 0 3.817327097437539 24.146389526535536 86.15699654741705 1 0 0
7432 0 1 0 2.3890792526419102 24.11520470528344 86.15495098086767 1 0 0
8104 0 1 0 4.4952645883555835 25.40569734231654 86.13243346562773 1 0 0
7385 0 1 0 3.784031177203184 26.61043390633551 86.08285979430472 1 0 0
8106 0 1 0 4.478664349684877 27.82596841592035 86.05939454971383 1 0 0
7426 0 1 0 0.2039669572797292 27.828234870023522 85.8342615825739 1 0 0
8124 0 1 0 8.77274676869458 25.41446123123377 86.21036160432237 1 0 0
8125 0 1 0 8.085374081733276 26.640564659523033 86.19875393134639 1 0 0
8123 0 1 0 8.034992096036857 24.13753608149099 86.26373764084136 1 0 0
8114 0 1 0 6.669643249669799 26.649911333227067 86.25224703127094 1 0 0
8112 0 1 0 6.594557343689841 24.149753688414012 86.27107805617437 1 0 0
8113 0 1 0 5.927034141593017 25.427458430899463 86.22369082089087 1 0 0
8115 0 1 0 5.910753273318759 27.876715222926414 86.14562789706687 1 0 0
8144 0 1 0 13.028493549548344 25.348853788443776 85.93350215745926 1 0 0
8145 0 1 0 12.298901266580192 26.605835185664347 85.9177215777418 1 0 0
8134 0 1 0 10.869671133436299 26.56447819121385 86.0027382434689 1 0 0
8133 0 1 0 10.193385286664393 25.367538785175558 86.13315612190769 1 0 0
8143 0 1 0 12.329376660033093 24.16324448562356 86.06091576393605 1 0 0
8132 0 1 0 10.923660800746932 24.14993209570416 86.17446034313878 1 0 0
193 0 1 0 18.71295504008256 25.36660519064814 85.89178173219119 0 0 0
8153 0 1 0 14.462119743592154 25.38802027124681 85.92199083495183 1 0 0
8103 0 1 0 16.62156434419065 24.08395980327807 85.96875169580815 1 0 0
8152 0 1 0 15.171627603001753 24.1296656586836 85.88242354433456 1 0 0
184 0 1 0 17.324470176476897 25.330226768022197 86.01472899045315 0 0 0
8105 0 1 0 16.65385233852098 26.590280541015012 85.90709453799066 1 0 0
8154 0 1 0 15.188628994618737 26.57545736133107 85.93543231062995 1 0 0
7438 0 1 0 2.2960959527122764 31.571608756282505 85.91875632350943 1 0 0
7387 0 1 0 3.7593117000292593 29.05147715339363 85.9640952030549 1 0 0
7389 0 1 0 3.7674934438927496 31.532370656457978 85.96672823763731 1 0 0
8108 0 1 0 4.46815919682024 30.278545891948525 86.01657319722389 1 0 0
7437 0 1 0 1.6298446261950768 30.31590290013785 85.85192350245674 1 0 0
7436 0 1 0 2.3614490436262794 29.03923958273065 85.88233600101333 1 0 0
7435 0 1 0 1.6866228826319176 27.784896396245582 85.8957968026407 1 0 0
7428 0 1 0 0.2004224614715456 30.274993175552893 85.81980726001387 1 0 0
8126 0 1 0 8.81358790305609 27.83616931556316 86.11226758352552 1 0 0
8116 0 1 0 6.608817823691216 29.119241142635193 86.11989589785487 1 0 0
8117 0 1 0 5.906342819344059 30.30938493360332 85.97813535863575 1 0 0
8127 0 1 0 8.046493882918156 29.071551579378912 86.09222802899815 1 0 0
8129 0 1 0 8.086187821029851 31.517086607663266 85.96081628219841 1 0 0
8128 0 1 0 8.773049742610056 30.272597376205738 85.96278144415685 1 0 0
8118 0 1 0 6.623338209114502 31.571569711701645 85.95330940515353 1 0 0
8157 0 1 0 14.484872159788543 30.230831185604398 85.70122541524638 1 0 0
8149 0 1 0 12.323556468574218 31.550772136764017 85.85920133398264 1 0 0
8146 0 1 0 13.021250664819345 27.783498085103798 85.90291187380367 1 0 0
8147 0 1 0 12.299368800031703 29.044828828134317 85.92297869739471 1 0 0
8135 0 1 0 10.196631836145588 27.835780797108526 85.9978852310999 1 0 0
8136 0 1 0 10.90544920343569 29.089279950496532 85.97846283982834 1 0 0
8148 0 1 0 13.045878094361168 30.30805500787557 85.82281164737864 1 0 0
8137 0 1 0 10.181234323271804 30.305040211325174 85.92776002241348 1 0 0
8138 0 1 0 10.924100363558859 31.512371952965136 85.87619045169633 1 0 0
195 0 1 0 18.772034769643664 27.814156875328642 85.70711976278905 0 0 0
197 0 1 0 18.724261204611885 30.279473570287813 85.57792627291201 0 0 0
8107 0 1 0 16.653920117650266 29.003251368859793 85.74122687103872 1 0 0
188 0 1 0 17.318025549471283 30.26476852393271 85.60074682800366 0 0 0
8158 0 1 0 15.152760377598016 31.47320441006265 85.54991547602052 1 0 0
8109 0 1 0 16.577915538514926 31.492399305666865 85.53691576808681 1 0 0
8155 0 1 0 14.475171405357846 27.812389458066267 85.91057455735132 1 0 0
186 0 1 0 17.40317885996742 27.78296671940506 85.78667397386799 0 0 0
8156 0 1 0 15.199249533698191 29.018801089925297 85.69861513321186 1 0 0
7439 0 1 0 1.6199113531733722 32.78542783640824 85.98290203915258 1 0 0
7491 0 1 0 1.6562843438627837 35.25290803456529 86.06781152271627 1 0 0
7492 0 1 0 2.3683429301257966 36.42286825992596 85.87401189307016 1 0 0
7381 0 1 0 3.789882460837682 34.013454056490126 86.01958494261648 1 0 0
7440 0 1 0 2.3790411743574214 34.01555331515173 86.02686581048177 1 0 0
8110 0 1 0 4.517080356577002 32.76295926921342 85.9551228709795 1 0 0
8162 0 1 0 4.513463003051209 35.238306690052966 85.9951561705819 1 0 0
7443 0 1 0 3.8092304284191623 36.43351094639773 85.84395136129288 1 0 0
7482 0 1 0 0.22573358302045263 35.23204259634228 85.94146012287702 1 0 0
7430 0 1 0 0.22272967642424782 32.73905528339085 85.99908997591865 1 0 0
8130 0 1 0 8.791868911780242 32.7661023839313 85.92304517547844 1 0 0
8121 0 1 0 8.056767229565617 33.99919134053502 86.03846688034699 1 0 0
8182 0 1 0 8.788200473777973 35.22150118588795 85.96778406540325 1 0 0
8183 0 1 0 8.081215198361775 36.45930505406385 85.92901702396567 1 0 0
8119 0 1 0 5.922560165279091 32.79506203276349 85.84140510450952 1 0 0
8120 0 1 0 6.625693634735835 34.051648057322566 85.93315273500238 1 0 0
8171 0 1 0 5.945799538738022 35.245286336298854 86.07177587264084 1 0 0
8172 0 1 0 6.644697729461966 36.46925740387021 85.98778041334128 1 0 0
8192 0 1 0 10.928113562036527 36.46972805813847 85.77189512947145 1 0 0
8202 0 1 0 13.047375833208243 35.228167697488026 85.73098296128882 1 0 0
8211 0 1 0 14.47066834175001 35.22924246667496 85.73441154363958 1 0 0
8140 0 1 0 10.960497943743189 34.016550921094414 85.74362183105842 1 0 0
8191 0 1 0 10.216199028202528 35.221199777678855 85.82567594578941 1 0 0
8141 0 1 0 12.37797818924442 33.96745025212802 85.78514658912711 1 0 0
8150 0 1 0 13.077116247914446 32.758258828174554 85.79158626143864 1 0 0
8139 0 1 0 10.21052360300105 32.76911487429982 85.83884206967312 1 0 0
8159 0 1 0 14.539139351336903 32.71111879653013 85.65531881708412 1 0 0
199 0 1 0 18.779825939416817 32.76813686641104 85.44867202053352 0 0 0
8160 0 1 0 15.233084250667318 34.0183670887886 85.69147522657728 1 0 0
242 0 1 0 17.35928557131528 35.23068086871484 85.62127252033471 0 0 0
251 0 1 0 18.793075958177944 35.23651369856799 85.41764344973839 0 0 0
190 0 1 0 17.35384709098917 32.71651238339647 85.5232788725448 0 0 0
8101 0 1 0 16.663396718857022 34.005311040444276 85.61645387369464 1 0 0
8212 0 1 0 15.18574520116938 36.47548504098326 85.779471195655 1 0 0
8163 0 1 0 16.626592380495634 36.50595754225128 85.66178393943564 1 0 0
8185 0 1 0 8.060165664589617 38.93150328665438 85.8831850860267 1 0 0
8186 0 1 0 8.78521526519285 40.1443235694413 85.74311852137791 1 0 0
8176 0 1 0 6.631787194533874 41.509053035809025 85.7435029353523 1 0 0
8187 0 1 0 8.077931268782093 41.42463033152101 85.83213550410372 1 0 0
8195 0 1 0 10.192301243831054 40.149037811076816 85.63718275906574 1 0 0
8196 0 1 0 10.884032344863085 41.42129231347675 85.65085971711721 1 0 0
246 0 1 0 17.35377234544387 40.18679466428304 85.20075076466499 0 0 0
8165 0 1 0 16.642628262858665 38.95682396486814 85.40663773617918 1 0 0
244 0 1 0 17.32739164655679 37.70149376774023 85.55164610538542 0 0 0
255 0 1 0 18.772400138092557 40.17948461620318 85.1820550033489 0 0 0
8167 0 1 0 16.640003624452927 41.438715103119506 85.20745481889591 1 0 0
253 0 1 0 18.731460547727107 37.70733976564274 85.31367358740901 0 0 0
8170 0 1 0 4.459114971461843 45.15570673724335 85.88104091753185 1 0 0
8177 0 1 0 5.905102864663207 42.6876219622841 85.73268203271995 1 0 0
8178 0 1 0 6.571242578105468 43.91814581313266 85.69270138423775 1 0 0
8188 0 1 0 8.792724140469378 42.693116226107904 85.77654403288385 1 0 0
8189 0 1 0 8.022730265597234 43.921471435248094 85.68921560450923 1 0 0
8179 0 1 0 5.898937617138293 45.15940731568176 85.7461376469878 1 0 0
8190 0 1 0 8.757990211783543 45.157889370076106 85.62225912286175 1 0 0
8198 0 1 0 10.923626162331125 43.85984301488872 85.49132263984379 1 0 0
8197 0 1 0 10.199183253016793 42.656223586377756 85.63292832086164 1 0 0
8199 0 1 0 10.20315952858305 45.14431799858214 85.4455202245822 1 0 0
257 0 1 0 18.788846989999143 42.62595787563326 84.94551969463012 0 0 0
248 0 1 0 17.358938988630147 42.639042830363415 85.10218917847514 0 0 0
8222 0 1 0 4.483019217692896 47.64717325203818 85.9480860047753 1 0 0
8180 0 1 0 6.63550321688037 46.39738695124657 85.70101617781863 1 0 0
8231 0 1 0 5.946274051813202 47.64762773356851 85.80223629434809 1 0 0
8242 0 1 0 8.766753870580319 47.63072348757182 85.51188179310515 1 0 0
8181 0 1 0 8.047846676023267 46.398799827079486 85.51978549542633 1 0 0
8232 0 1 0 6.656691735292852 48.89286868867526 85.6764540370442 1 0 0
8243 0 1 0 8.068871082879578 48.89975944915808 85.55657676772756 1 0 0
8244 0 1 0 8.777332133350013 50.0900351198011 85.54089687102861 1 0 0
8251 0 1 0 10.202069065344565 47.63144753363211 85.60221105624443 1 0 0
8200 0 1 0 10.91681206559489 46.39789249647274 85.47468713469445 1 0 0
7445 0 1 0 3.788528335593112 38.89872771260146 85.67775444822897 1 0 0
8164 0 1 0 4.5243054258621855 37.673161090938905 85.7602821132322 1 0 0
8166 0 1 0 4.468438370151831 40.16342284668132 85.66109430311555 1 0 0
7493 0 1 0 1.6636162163863342 37.6640919770819 85.71346576032046 1 0 0
7494 0 1 0 2.3643450413875944 38.86422477167295 85.61749840658796 1 0 0
7495 0 1 0 1.6850644391263725 40.13511292614649 85.61142624656746 1 0 0
7484 0 1 0 0.22688607153360513 37.690210815428166 85.70711331701612 1 0 0
7486 0 1 0 0.212211661736301 40.127969423569034 85.69934088761353 1 0 0
7447 0 1 0 3.7725439547576785 41.454085262028215 85.59222046611661 1 0 0
7496 0 1 0 2.3139797312673136 41.40570924161889 85.57051405304229 1 0 0
8184 0 1 0 8.784777101173235 37.71517988813987 85.81820060015376 1 0 0
8174 0 1 0 6.603040786974848 38.991347661539685 85.75607545399612 1 0 0
8175 0 1 0 5.893372837182278 40.24238601799773 85.78539601457258 1 0 0
8173 0 1 0 5.918561958762711 37.73590403835149 85.80463204800277 1 0 0
8204 0 1 0 13.109613672207846 37.727755118180006 85.67685137802489 1 0 0
8213 0 1 0 14.510572927485068 37.76365893751184 85.7233767787705 1 0 0
8215 0 1 0 14.540370388283712 40.20341734859392 85.43539786390915 1 0 0
8205 0 1 0 12.371628225704749 38.94484181213956 85.6600042825746 1 0 0
8193 0 1 0 10.255703650445218 37.705976588792275 85.78549184706468 1 0 0
8194 0 1 0 10.966229292566219 38.92820062552981 85.77369985660124 1 0 0
8206 0 1 0 13.097256341848935 40.1926821309763 85.5592016950077 1 0 0
8207 0 1 0 12.328538006121574 41.42614426881392 85.61604131496729 1 0 0
8216 0 1 0 15.20612166180467 41.43315833194857 85.3363022216865 1 0 0
8214 0 1 0 15.25056517925661 38.938992467128195 85.56629501733423 1 0 0
7449 0 1 0 3.7564503369010094 43.95364015942112 85.85166648798084 1 0 0
8168 0 1 0 4.437455424440643 42.71585955847061 85.69903173713705 1 0 0
7497 0 1 0 1.5906984302699827 42.68273134634617 85.64386385088683 1 0 0
7498 0 1 0 2.3230683251730775 43.91098537322651 85.82342438290979 1 0 0
7499 0 1 0 1.60313208606027 45.138705827532945 85.92000880957549 1 0 0
7490 0 1 0 0.17177471121197993 45.12245313921994 85.79163595156847 1 0 0
7488 0 1 0 0.1960127915565452 42.65900729173309 85.5558937795202 1 0 0
8210 0 1 0 13.064482126765157 45.09345839711062 85.28839415694307 1 0 0
8208 0 1 0 13.049913525160136 42.647633055559325 85.47180952675629 1 0 0
8209 0 1 0 12.348703972292832 43.88316232324062 85.391085931072 1 0 0
8219 0 1 0 14.474310569064166 45.11092383414024 85.24804863203475 1 0 0
8217 0 1 0 14.517247320922218 42.66885306422656 85.35893656485648 1 0 0
250 0 1 0 17.32202197376345 45.139657878243376 85.00858938421257 0 0 0
259 0 1 0 18.77468324610864 45.14612296110128 84.96367965409733 0 0 0
8169 0 1 0 16.621000502406115 43.88055840224693 85.05733204586006 1 0 0
8218 0 1 0 15.194800239166995 43.898807437667664 85.26828515330877 1 0 0
7441 0 1 0 3.7415632464104713 46.41824708167863 85.90855813579864 1 0 0
7551 0 1 0 1.603604718900871 47.61800400034063 86.00227603597587 1 0 0
7552 0 1 0 2.3598836801876044 48.875764618329306 86.1349850511716 1 0 0
7500 0 1 0 2.2930887578253305 46.39507600225961 85.94176900675558 1 0 0
7553 0 1 0 1.6218408271344082 50.09775976344427 86.118675275893 1 0 0
7503 0 1 0 3.7663398792141662 48.862406810943796 86.10422900797903 1 0 0
8224 0 1 0 4.513480991772219 50.09671447805839 86.03089535378359 1 0 0
7544 0 1 0 0.145267139635025 50.051241137209615 86.12212656579273 1 0 0
7542 0 1 0 0.1438704852364376 47.64140953295646 86.03452779574162 1 0 0
8233 0 1 0 5.929622915492774 50.14836434736066 85.7606134062407 1 0 0
8201 0 1 0 12.350459709644074 46.34229020980734 85.40666287208266 1 0 0
8262 0 1 0 13.061769654631046 47.57480182057675 85.4119671038286 1 0 0
8263 0 1 0 12.342575499124143 48.83995785032003 85.42408038391703 1 0 0
8264 0 1 0 13.04836257408113 50.07390211560379 85.28051426741482 1 0 0
8252 0 1 0 10.925785364178092 48.83284795395715 85.56632426701258 1 0 0
8253 0 1 0 10.206459486075065 50.13750928424919 85.52933761909968 1 0 0
8271 0 1 0 14.481316222807022 47.60180665525513 85.20290579607595 1 0 0
8273 0 1 0 14.496332817095835 50.07779223194733 85.1988222054808 1 0 0
311 0 1 0 18.769211089355746 47.62308288974349 84.99591255794958 0 0 0
302 0 1 0 17.326909142516055 47.60235869410453 85.11412647067513 0 0 0
8161 0 1 0 16.62956652722312 46.414635720094 85.17554305846417 1 0 0
8220 0 1 0 15.181125092171317 46.35000687731337 85.2184915616903 1 0 0
8223 0 1 0 16.595030580513793 48.83430455262438 84.9703097341567 1 0 0
304 0 1 0 17.320932703164512 50.12467803978234 84.87342938669707 0 0 0
313 0 1 0 18.71958358923976 50.10888602743115 84.96299271779634 0 0 0
8272 0 1 0 15.148709140317608 48.8393771398023 85.036120044972 1 0 0
8228 0 1 0 4.5555916931479326 55.04083559109752 86.15241052707177 1 0 0
7554 0 1 0 2.346743752332532 51.30820700427484 86.12653908793664 1 0 0
8226 0 1 0 4.5221495653599195 52.556076517198285 86.06772440376143 1 0 0
7556 0 1 0 2.3322609213986785 53.7550020600489 86.37521922199377 1 0 0
7507 0 1 0 3.7953973032661548 53.744597148935526 86.16140173372081 1 0 0
7505 0 1 0 3.7985653522380076 51.32637978709098 86.01068842509652 1 0 0
7557 0 1 0 1.6151261296952437 55.05022475413753 86.36443496381979 1 0 0
7555 0 1 0 1.6545858715487582 52.547755991005204 86.25931765159176 1 0 0
7546 0 1 0 0.2512492872570965 52.48876143614858 86.36790293889987 1 0 0
7548 0 1 0 0.18631118153771065 54.97198660120323 86.45841139354118 1 0 0
8234 0 1 0 6.636717282907688 51.36318420891346 85.66343045062793 1 0 0
8235 0 1 0 5.946426833295389 52.59034819028939 85.84229117818721 1 0 0
8237 0 1 0 5.972648471376283 55.04678618524339 86.06957150447396 1 0 0
8245 0 1 0 8.081839647130678 51.34803765928841 85.44713727301716 1 0 0
8246 0 1 0 8.780423924849767 52.55738742943546 85.62374208679351 1 0 0
8236 0 1 0 6.6668494417892346 53.802620220659534 85.85322337442176 1 0 0
8247 0 1 0 8.103399524164372 53.76668433079877 85.6772159936373 1 0 0
8248 0 1 0 8.79521358597764 55.035474246512436 85.6993766999578 1 0 0
8266 0 1 0 13.069163758267555 52.550515319931556 85.28252294473486 1 0 0
8254 0 1 0 10.940812405946327 51.357416324661784 85.43556415834352 1 0 0
8255 0 1 0 10.20125615695362 52.58326969162665 85.48341919244805 1 0 0
8257 0 1 0 10.255560441066551 55.05756848971614 85.53992805851036 1 0 0
8267 0 1 0 12.366152952211165 53.81374435463703 85.38409936416183 1 0 0
8256 0 1 0 10.952265961571918 53.81440966853516 85.48576495549206 1 0 0
8268 0 1 0 13.022729130246365 55.02033389704999 85.32190317631239 1 0 0
8265 0 1 0 12.385915910991903 51.33395959170502 85.38609188888435 1 0 0
8277 0 1 0 14.42416779725302 55.03671633183041 85.20779517676101 1 0 0
306 0 1 0 17.309245017457155 52.56453167612488 84.82939856718426 0 0 0
8225 0 1 0 16.590887863791156 51.388983540840684 84.90854677197552 1 0 0
315 0 1 0 18.809964487754318 52.555338047039406 84.7472989024981 0 0 0
317 0 1 0 18.744845400509103 55.012190643696634 84.74436116027769 0 0 0
8274 0 1 0 15.174551374530763 51.34851729799995 85.09529297554805 1 0 0
8227 0 1 0 16.580011461314086 53.806323557894345 84.86651826677318 1 0 0
308 0 1 0 17.33704588355929 54.9725798025081 84.86144637580585 0 0 0
8275 0 1 0 14.46904988484636 52.587079667106565 85.19699850727521 1 0 0
8276 0 1 0 15.133654222888513 53.80345514927109 85.22613140293959 1 0 0
7509 0 1 0 3.7701827892964865 56.23985775221555 86.30888666818268 1 0 0
7559 0 1 0 1.6494360518233475 57.43428505395358 86.40407367774745 1 0 0
7558 0 1 0 2.3603482690045414 56.23844368284511 86.30461287511042 1 0 0
7560 0 1 0 2.35068248894616 58.6504234930274 86.50120762273303 1 0 0
8230 0 1 0 4.517762673090472 57.47124166002306 86.31637333992704 1 0 0
7501 0 1 0 3.795235596555637 58.72330448373335 86.3437696920492 1 0 0
7550 0 1 0 0.18542124218148306 57.43766932930835 86.47356504068462 1 0 0
8282 0 1 0 4.502429386160498 59.96957416050396 86.28971028192586 1 0 0
7602 0 1 0 0.24446373626881002 59.9310108348804 86.66299939119973 1 0 0