(written by ASE)

9540 atoms
3 atom types

0.0      154.00799999999998  xlo xhi
0.0      148.19999999999999  ylo yhi
0.0      151.07609208607428  zlo zhi

Masses

     1      12.010999996910238 # C
     2      1.0079999997406979 # H
     3      15.998999995884349 # O

Atoms # full

     1   0   1   0.0      28.814806843116649    -0.85572779150840306      78.616878956774698
     2   0   1   0.0      16.689567163726771     -11.971851697667409      77.945815781528907
     3   0   1   0.0      28.826179518657096      -10.66486243068892      77.558209517800208
     4   0   1   0.0      16.753899184389404     -9.5044471947015303      78.210810857716368
     5   0   1   0.0      28.788586890607103     -8.1971794790724477      77.664736139144395
     6   0   1   0.0       16.66899623511679     -6.9903782660001692      78.072910639909821
     7   0   1   0.0      28.858019840840925      -5.725695807890876      78.010799793747154
     8   0   1   0.0      16.775161498801232     -4.5158399216804819      78.172662832934236
     9   0   1   0.0      28.812379607159798     -3.2680727006852486      78.426872053653852
    10   0   1   0.0      16.675230494314079     -2.0200605317074118      78.009590252177418
    11   0   1   0.0      18.124418924686257     -11.952796271524374       77.89214669288458
    12   0   1   0.0      18.894403091326996     -10.713789508992509      77.878890328508447
    13   0   1   0.0      18.182806819718721     -9.4811189757252254      78.178612523718328
    14   0   1   0.0      18.852891358566332     -8.2158900285349947      78.105367793670297
    15   0   1   0.0      18.091965384030988     -6.9960526317516951      78.147208185258194
    16   0   1   0.0      18.831462106173671     -5.7840974893522406      78.105467179281945
    17   0   1   0.0       18.17528336952423     -4.5280810849336861      78.104984394591497
    18   0   1   0.0      18.871297084372507     -3.2336071414785348       78.13852294983225
    19   0   1   0.0      18.174299203541395     -2.0173452891549237      78.093143191556365
    20   0   1   0.0      18.867245278948133    -0.78189125214336941      78.212128012918967
    21   0   1   0.0      20.235793152248419    -0.81912408048432561       78.42322352641996
    22   0   1   0.0      20.989012221744392     -11.967564966827078      77.582641553257233
    23   0   1   0.0      20.328516927782886     -10.708726966062139       77.70813506475595
    24   0   1   0.0      20.988564842497105      -9.480288543771854      77.670908619428658
    25   0   1   0.0      20.302360854902524      -8.248764066626082      77.929816706127866
    26   0   1   0.0      20.966163499076256     -7.0094904946766654      77.984891117763539
    27   0   1   0.0       20.24908340166316     -5.7854020140265501      78.013968593880634
    28   0   1   0.0      20.976149989868116      -4.548088191732746      78.099102214917124
    29   0   1   0.0      20.268734920015152      -3.288956959211196      78.110295288192006
    30   0   1   0.0      20.958774078059349     -2.0552016297268367      78.312293331462087
    31   0   1   0.0       22.43438345853118     -11.924734425193757       77.42171566729769
    32   0   1   0.0      23.142427916489233     -10.648580713105201      77.459468185120471
    33   0   1   0.0      22.390652773426488     -9.4551433341706108      77.529029337407081
    34   0   1   0.0      23.106915859462877      -8.190695396330085       77.71434647106841
    35   0   1   0.0      22.396581252308422     -6.9754124132736592      77.848521024974502
    36   0   1   0.0      23.090769793992219     -5.7577108499206124      78.024348083739113
    37   0   1   0.0      22.384445383068776     -4.5292913312977152      78.142115908827193
    38   0   1   0.0      23.119166422359658     -3.2870110354882973      78.395532972556481
    39   0   1   0.0      22.340625806269795     -2.1412040507309267      78.474931865748985
    40   0   1   0.0      23.072129315632885    -0.89131259203159707      78.657427147714927
    41   0   1   0.0       24.51092702050958    -0.88286053150105348        78.7621399245173
    42   0   1   0.0      25.227126571812391     -11.913340032281067      77.426031339594573
    43   0   1   0.0      24.540061248511954     -10.625373542079055      77.467159617752372
    44   0   1   0.0      25.304073284606609     -9.4693854245016187      77.597108081962858
    45   0   1   0.0      24.518639250926519     -8.2742323878960669      77.834963305707291
    46   0   1   0.0      25.247306060770448     -7.0109344766110304      77.992578274503416
    47   0   1   0.0      24.516052199723273     -5.8042747344684633      78.139739554300675
    48   0   1   0.0      25.245767904128634     -4.5546949571205513      78.217732687577964
    49   0   1   0.0      24.535842843523319     -3.3429410163599016      78.369329753050565
    50   0   1   0.0      25.199235812348025     -2.0582414131242275      78.559541031889822
    51   0   1   0.0      26.668734530707301     -11.904225796129989      77.532229069811379
    52   0   1   0.0      27.385010882626588     -10.715040236121391      77.589553292489697
    53   0   1   0.0      26.717109245873203      -9.465238706612336       77.63639955529392
    54   0   1   0.0      27.398119203513151     -8.2472715949713891       77.65525963059406
    55   0   1   0.0      26.695298897076473     -6.9699716690621738      77.906821284936228
    56   0   1   0.0      27.428255137566492     -5.7428347602196048      78.037487742449343
    57   0   1   0.0      26.661250142516757     -4.5629074555503522      78.272471469146637
    58   0   1   0.0      27.369611122352236     -3.2793407781057979      78.439969962869199
    59   0   1   0.0      26.602360871539503     -2.0871061402019784      78.587466004366675
    60   0   1   0.0      27.361263751006014    -0.86021855425642602      78.673177882257818
    61   0   1   0.0      28.831198955814205      11.521440087660388      78.909892969874321
    62   0   1   0.0      16.770763598024352     0.44193730568438699      78.137253974350685
    63   0   1   0.0      28.846486841392618      1.6283026923796429      78.919122221265923
    64   0   1   0.0      16.769110069427214      2.9003164133841315      78.225992589464866
    65   0   1   0.0      28.786204777886514      4.1037820150226443      79.024779597533978
    66   0   1   0.0      16.753885851968928      5.3816075891153332       78.54411893926914
    67   0   1   0.0      28.882810808745109      6.6101687115865557      79.013041106847268
    68   0   1   0.0      16.781171934769052      7.8022713780997712      78.605577028113188
    69   0   1   0.0      28.839163105302667      9.0463894993474803      78.918444489089339
    70   0   1   0.0      16.747523990207114      10.270508062385167      78.792255280309647
    71   0   1   0.0      18.193912100069404     0.45381705257040894      78.218493017363187
    72   0   1   0.0      18.906307302370838      1.6476837695642672         78.265329299765
    73   0   1   0.0      18.162861396291515       2.862338745784796      78.354006225672521
    74   0   1   0.0      18.919160099444628      4.1461657018319809      78.570178617874674
    75   0   1   0.0      18.223180141730193      5.3503610401248247      78.602103876117496
    76   0   1   0.0      18.932358240053418      6.6371323221951046      78.658507699598047
    77   0   1   0.0      18.146468294825382      7.8088157219313015      78.657847121198955
    78   0   1   0.0      18.882272872038929      9.0595449577043698      78.495539379439862
    79   0   1   0.0      18.176307994875177      10.321517153575936      78.604877112435602
    80   0   1   0.0       18.82682085919944      11.585085659007845      78.539157081179169
    81   0   1   0.0      20.251693092777618      11.540765981323299      78.505779655369693
    82   0   1   0.0      20.973877752237467     0.37860236889139509       78.55194424552235
    83   0   1   0.0       20.34254611379037      1.6444971707193092      78.451057837984933
    84   0   1   0.0      21.033958552458699      2.8637372835250234      78.559760919519647
    85   0   1   0.0      20.339208496096575      4.1423862697510208      78.626209605251688
    86   0   1   0.0      21.054395260389601       5.373810499802814      78.657677832154917
    87   0   1   0.0      20.359482021052109      6.6177550617133294      78.676114228124263
    88   0   1   0.0      21.042623538305687      7.8437299094098476      78.584722528344372
    89   0   1   0.0      20.288741606257908      9.0619936591240453      78.450635855497524
    90   0   1   0.0      20.933953612356479      10.324878501835032      78.475706522111281
    91   0   1   0.0      22.389988077327494     0.35351461245682581      78.614758516352012
    92   0   1   0.0      23.134668961749355      1.6206899400561081      78.699924046274219
    93   0   1   0.0      22.458578305896953      2.8950196487727662      78.660116813241117
    94   0   1   0.0      23.180136815013999      4.0882633076632615       78.75125093175204
    95   0   1   0.0      22.512458967542287      5.3613990954612616      78.756509667157545
    96   0   1   0.0      23.168620022304886      6.6056751315815907      78.705601363311303
    97   0   1   0.0      22.465971803450874      7.8624351223345474       78.56812880243703
    98   0   1   0.0       23.19066088416049      9.0423088600794213      78.635545956743144
    99   0   1   0.0      22.401071995838084      10.279631659247711      78.591127856430802
   100   0   1   0.0      23.099443153728725      11.596124078013865      78.643603231996437
   101   0   1   0.0      24.543425317727053      11.534619047159932      78.696825649273634
   102   0   1   0.0      25.280216274382092     0.34860547972963657      78.834179353967073
   103   0   1   0.0      24.548093335606833      1.5976038470194927       78.82101970486282
   104   0   1   0.0      25.261367701218301      2.8218729843775061      79.044666433875577
   105   0   1   0.0      24.582459724180836      4.1070486518440843      79.006611463327886
   106   0   1   0.0      25.295633387450732      5.3327101256898839      79.015383493363714
   107   0   1   0.0      24.592302262872316      6.5777636373577693      78.856506109824011
   108   0   1   0.0       25.28897495970191      7.8290929740092494       78.77514186350281
   109   0   1   0.0      24.593808308612136      9.0468605704006233      78.647857469684638
   110   0   1   0.0      25.277745669923117      10.326015595160065      78.752097486928719
   111   0   1   0.0      26.683643303806093     0.36456269522142304      78.891510807120426
   112   0   1   0.0      27.431880787916043      1.5995432500027109      78.982951014262312
   113   0   1   0.0      26.671622712336422      2.7928763309492237      79.073688519558161
   114   0   1   0.0      27.346636476963081       4.085365432568909      79.044359232223144
   115   0   1   0.0       26.67794349568236      5.3606026481368128      78.981186858286975
   116   0   1   0.0      27.481920945022754      6.5508368264956287      78.896099970692205
   117   0   1   0.0      26.740536308426083      7.7872983997515677      78.800792584174829
   118   0   1   0.0      27.436391556751843      9.0793459635847178      78.840818944151081
   119   0   1   0.0      26.676087629653932      10.334346206503815      78.816446460758357
   120   0   1   0.0      27.383701524249897      11.510083875670396      78.850176799051937
   121   0   1   0.0      28.861031639081386      23.858816841412548       77.82082457563601
   122   0   1   0.0       16.72546378937265      12.760040117063792      78.773710132319138
   123   0   1   0.0      28.792420714636023      13.942699155925494      78.992696274505093
   124   0   1   0.0      16.697913042713225      15.248941967707546      78.870101261522791
   125   0   1   0.0      28.793761321365142       16.47765917519218      78.974908692875388
   126   0   1   0.0      16.715388959363612      17.794781961130752      78.905505380839926
   127   0   1   0.0      28.779628045958376      18.971864626667667      78.701243012938932
   128   0   1   0.0      16.744755722937828      20.236401505555033      78.952166422131612
   129   0   1   0.0      28.857668065645711      21.421821451746411      78.293191268026661
   130   0   1   0.0      16.732804790901813      22.765516451801481      78.958575382237157
   131   0   1   0.0      18.168439891509081      12.827832474719859      78.678562870733629
   132   0   1   0.0      18.873839517936876      14.074419031816895      78.667442437191653
   133   0   1   0.0      18.146925993650722      15.295012327358341      78.855607557040955
   134   0   1   0.0      18.861984558474372      16.520108430772897       78.96039476240486
   135   0   1   0.0       18.14216322371524      17.779437595653317      79.009117130458378
   136   0   1   0.0      18.849330272322337      19.014138377403302      79.003191071146134
   137   0   1   0.0      18.165352623143971      20.226731464878206       78.90681462383202
   138   0   1   0.0      18.890962804196995      21.471267661372263      78.931769476300047
   139   0   1   0.0      18.190307491020732      22.697843719585915      78.887784932379503
   140   0   1   0.0      18.920880934169531      23.931704889013872      78.748090701902626
   141   0   1   0.0      20.327581969805696      23.872225845371165      78.633404381466079
   142   0   1   0.0      20.993608952507078      12.810566668332269      78.584820766530498
   143   0   1   0.0      20.316484465153572      14.057847211369987      78.700843013300684
   144   0   1   0.0      20.988553571580571       15.28131905976765      78.693919994080929
   145   0   1   0.0      20.276270123301586      16.513874203470557      78.834036167212588
   146   0   1   0.0      20.990222111815591      17.760379435048964       78.91355534667737
   147   0   1   0.0      20.266936194695429      18.976671197539044      78.996208054207642
   148   0   1   0.0      21.015832322636278      20.279147830755292      78.923413906735846
   149   0   1   0.0      20.293782076672908      21.434764920671924      78.849319526271628
   150   0   1   0.0      21.009734298766862      22.636614759643333      78.782340725309766
   151   0   1   0.0      22.397999946175801      12.844960798262447      78.609350511916645
   152   0   1   0.0      23.138559147656057      14.078489438884077       78.74131017596892
   153   0   1   0.0      22.401728118595177      15.273121708588564      78.739139037140845
   154   0   1   0.0      23.069375038636156      16.486066921142783      78.818182102165963
   155   0   1   0.0      22.377113040214851      17.739059736523071      78.861186157988328
   156   0   1   0.0      23.151838457827967      18.990733999542456      78.809041890343678
   157   0   1   0.0      22.422098887388657      20.200107544090312      78.878126809902525
   158   0   1   0.0      23.209385633937828      21.434014117139629      78.727771057209992
   159   0   1   0.0      22.462021046356572      22.667414424916483      78.675638014819711
   160   0   1   0.0      23.142565184832254      23.847978024158557      78.346531651927648
   161   0   1   0.0      24.592714155459614      23.932364507120223       78.30745879937389
   162   0   1   0.0      25.241614993536473      12.742504778678814      78.771307175475116
   163   0   1   0.0       24.58585347093786      13.989114238503094      78.813268979345636
   164   0   1   0.0      25.261468913820231      15.225015907024551      78.922722557232674
   165   0   1   0.0      24.515264510996477      16.483716053490117      78.940864762506195
   166   0   1   0.0      25.277459507187707       17.69983733527852      78.840217960020809
   167   0   1   0.0      24.608093024578526      18.954483602009326      78.768131521588799
   168   0   1   0.0      25.316626256044039      20.213510689692065      78.766352875110442
   169   0   1   0.0      24.597468810500342      21.450188779986728      78.628992123203489
   170   0   1   0.0      25.271046471111603      22.660905398322942      78.362311404268567
   171   0   1   0.0      26.706626155665603      12.766177097439702      78.859219680914848
   172   0   1   0.0      27.341518329871892      13.983405335757972      78.980670136916686
   173   0   1   0.0      26.696032851808425      15.259189361260328      78.909471376826787
   174   0   1   0.0      27.407085374372169      16.447670230005698      78.887317474291947
   175   0   1   0.0      26.631514269258314      17.715898695501906      78.775775518056449
   176   0   1   0.0      27.365067797006247      18.974645967497985      78.720778846460874
   177   0   1   0.0      26.717819851599881      20.209260111641111      78.672058584699911
   178   0   1   0.0      27.403049432770743      21.456813472735323      78.491384073060075
   179   0   1   0.0      26.716496906347057      22.627574433847204       78.30770181778685
   180   0   1   0.0      27.463863440221473      23.843271174535555      78.109184054169134
   181   0   1   0.0      28.885414501528338      36.158655088324849      77.441527492288515
   182   0   1   0.0      16.795594161934343      25.184909926319104      78.733209055867903
   183   0   1   0.0      28.869000921998328      26.333127098927704      77.608098994288753
   184   0   1   0.0      16.741167789435409       27.68587941854619      78.370547530353761
   185   0   1   0.0       28.92967795909966      28.770131391978325      77.656494434096444
   186   0   1   0.0      16.759697401163734      30.057132423148911      78.010506640851702
   187   0   1   0.0      28.892783883254079      31.196855437466638      77.476386784013911
   188   0   1   0.0      16.770666636834633      32.476616997716519      77.666087063069639
   189   0   1   0.0      28.876169408835942      33.682772157107443      77.403470406608335
   190   0   1   0.0      16.783829582961452      34.958017600148501      77.638003989004176
   191   0   1   0.0      18.188485689970179      25.168962364867411      78.697606150762041
   192   0   1   0.0      18.864786268240042      26.375425727977717       78.41132347962315
   193   0   1   0.0      18.141080211155408      27.619722876056144      78.305295575133869
   194   0   1   0.0      18.891854365621207      28.874579895156721       78.06184704361597
   195   0   1   0.0      18.229880894709094      30.042183313524347       77.87735341503776
   196   0   1   0.0      18.888968590681852       31.23526768873818      77.663168292301464
   197   0   1   0.0      18.207201613843718      32.531275181627066      77.628837439276467
   198   0   1   0.0      18.953770468995906      33.707090532857549      77.530887388291731
   199   0   1   0.0      18.185460235598658      34.931192090418918      77.592231158690709
   200   0   1   0.0      18.895913350262095      36.204634081859723      77.645292622442398
   201   0   1   0.0      20.317107969479668      36.176457133040678      77.579688032853369
   202   0   1   0.0      21.033535032193413      25.142377515916305       78.44603625544643
   203   0   1   0.0      20.317656467334416      26.361606538792955      78.374079712597535
   204   0   1   0.0      21.050133967666913      27.588288319264286      78.157833155722727
   205   0   1   0.0      20.321711944293732      28.798857636111453      77.978488845165913
   206   0   1   0.0      21.048958982574909      30.000652831447852      77.702941481429121
   207   0   1   0.0      20.326039240031573      31.228370129799647      77.674196091026815
   208   0   1   0.0      21.084976637580674      32.499522529646207      77.453282254330929
   209   0   1   0.0      20.342478874027478      33.716317594101348      77.513729924080337
   210   0   1   0.0      20.986158548540566      34.959878290349565      77.482776805445511
   211   0   1   0.0      22.468072048397413      25.127174719027295      78.298506167481449
   212   0   1   0.0      23.185392826751901      26.374117517309909      78.139230868238755
   213   0   1   0.0      22.451293838592775      27.608917322217884      78.132093214977729
   214   0   1   0.0      23.183341043650771      28.781236207926707      77.983951390172763
   215   0   1   0.0      22.470915086537808      29.985064582333649      77.755836576852388
   216   0   1   0.0      23.200681390527844      31.212803465337739      77.603591048841551
   217   0   1   0.0      22.496689571914438      32.433346436683266      77.387684553206128
   218   0   1   0.0      23.158215941954992      33.698603415538635       77.46365245778361
   219   0   1   0.0      22.439312333783761      34.964523529348234      77.534707657705795
   220   0   1   0.0      23.215146234347472      36.208087310126373      77.492448335864381
   221   0   1   0.0      24.640331383422829      36.208313953630729      77.470281352765724
   222   0   1   0.0      25.287775518760895      25.116043989458543      78.136284613008527
   223   0   1   0.0      24.601591878897814      26.346944261179782      77.991436607122722
   224   0   1   0.0      25.360740056859395      27.547872595396605      77.744345464802834
   225   0   1   0.0      24.567079848215119      28.776889489926543      77.743530550594372
   226   0   1   0.0      25.312432588336037      29.983678458319769      77.491210899077174
   227   0   1   0.0      24.586539477712115      31.229771415440343      77.497945783838929
   228   0   1   0.0      25.294797583480374      32.482666435436002      77.385152235987732
   229   0   1   0.0      24.624780954037938       33.75351946021167        77.4104356404642
   230   0   1   0.0      25.326111634104972      34.961642911353252      77.429601572620271
   231   0   1   0.0      26.748406538282751      25.119869949315547      78.064635693422957
   232   0   1   0.0      27.486659298882095      26.324073739476098       77.80084874927303
   233   0   1   0.0      26.771370839000596      27.530014988678918      77.581343977659657
   234   0   1   0.0      27.467107452014421      28.728067682684241      77.507781771007245
   235   0   1   0.0       26.70502216906312      29.949601706451812      77.462559818085822
   236   0   1   0.0      27.460131316302302      31.155246114907037      77.433442861392592
   237   0   1   0.0      26.723972905872202       32.41562680429552      77.471815671820892
   238   0   1   0.0      27.453023392172113      33.717560229577501      77.421334335969902
   239   0   1   0.0      26.713964208193051      34.921886672645819      77.443220247142335
   240   0   1   0.0      27.411122613642096       36.16515234156455      77.468044133901941
   241   0   1   0.0      28.861730856793301       48.59500170790475      77.207477857265985
   242   0   1   0.0      16.789632314778377       37.39332272105343      77.708920125041288
   243   0   1   0.0      28.869072759696028      38.664131280740229      77.447823151361007
   244   0   1   0.0      16.771250957357875      39.826155737944894      77.686593383260572
   245   0   1   0.0      28.813984397215901      41.176991966764803      77.501947904059293
   246   0   1   0.0      16.750819046991932      42.337355451605227      77.749473520927054
   247   0   1   0.0      28.846504722273423      43.607539732020882      77.559154799694554
   248   0   1   0.0      16.736542357127291      44.825619027100629      77.744563176535351
   249   0   1   0.0      28.885697065569605       46.14417722980113      77.488260970206625
   250   0   1   0.0      16.730887125274336      47.368725221438467      77.699127202471004
   251   0   1   0.0         18.186783115449      37.412156840619176      77.811115584644213
   252   0   1   0.0      18.940883091279915      38.643844268185795      77.781231833473313
   253   0   1   0.0      18.177564957761337      39.870079115844703      77.851165847382376
   254   0   1   0.0      18.878870906297479      41.152000818380486      77.884932005959229
   255   0   1   0.0      18.168435783890292      42.403714175917706      77.877962178082115
   256   0   1   0.0      18.896013798828378      43.663911624548767      77.924880216583944
   257   0   1   0.0      18.174297673498469      44.866503038210979      77.801744466266399
   258   0   1   0.0      18.886733026862892      46.082596075033521      77.741276317287245
   259   0   1   0.0      18.188365434231127      47.326424893937023      77.661823466493885
   260   0   1   0.0      18.897780441846582      48.592538485823944      77.654813312897119
   261   0   1   0.0       20.29795688476532      48.595922600064661      77.764341569608987
   262   0   1   0.0      21.076006570429552      37.448160931774659      77.629090478702423
   263   0   1   0.0      20.328146929008444      38.665689867973057      77.830898962160234
   264   0   1   0.0      21.055034465094469      39.849923381625572      77.835254446594618
   265   0   1   0.0      20.331595814520703       41.12784801342891      77.951176311362545
   266   0   1   0.0      21.014919228885066       42.38652776846093      77.893601954589329
   267   0   1   0.0      20.276899221713268      43.613802776886288      77.957485805119617
   268   0   1   0.0      21.040141267357757      44.849901105521987      77.954903490903732
   269   0   1   0.0       20.32005244200279      46.110461992154491      77.867037165932018
   270   0   1   0.0      21.000629625839881      47.348861573592743      77.754696073203945
   271   0   1   0.0      22.484005383953154      37.466824973590512      77.639698816888171
   272   0   1   0.0      23.178243262730167      38.685859865366105      77.724495152913605
   273   0   1   0.0      22.464789031271486      39.899306085157981      77.801951799923685
   274   0   1   0.0      23.095716543940945      41.141949876826295      77.689491343569841
   275   0   1   0.0      22.432205764308264      42.392211806078315      77.745903329709051
   276   0   1   0.0      23.160742067086531      43.645394375542487       77.76584783571991
   277   0   1   0.0      22.436809398503783      44.860245035928017      77.859937039851218
   278   0   1   0.0       23.11596893208625      46.062068390737728      77.708761268603908
   279   0   1   0.0      22.476750035647054      47.350447804891409      77.652649657320154
   280   0   1   0.0      23.205965998604224      48.531036709013925      77.418209240681136
   281   0   1   0.0      24.562541932402919        48.5205462711995      77.297399022237954
   282   0   1   0.0      25.328392056412763      37.436869438105468      77.457964011827912
   283   0   1   0.0      24.625831207140038      38.684443029719326      77.590051418817055
   284   0   1   0.0      25.307698903575261      39.939405877170046      77.568981671343664
   285   0   1   0.0       24.52968196237887      41.136872667023297      77.581646183781615
   286   0   1   0.0      25.261046139965373       42.37042273044041      77.625904137126895
   287   0   1   0.0      24.565708172315418      43.616192670129742      77.704707443341931
   288   0   1   0.0      25.354060335772719      44.811131552728298       77.63318504984592
   289   0   1   0.0      24.585507783129668      46.061423868387671      77.592436933591031
   290   0   1   0.0      25.279821859250291      47.312121788973208      77.399482641510176
   291   0   1   0.0      26.725378490073687      37.385238834258175      77.373451806500498
   292   0   1   0.0      27.475606204653946      38.658660737695392      77.390725812768338
   293   0   1   0.0       26.70691170508146      39.879636964181522      77.523885069832005
   294   0   1   0.0      27.379118014297347       41.18587188388387      77.572491112930507
   295   0   1   0.0      26.662595082299951      42.410310883834974      77.652757693664341
   296   0   1   0.0      27.413755907263926      43.625909386973461      77.614127804607108
   297   0   1   0.0       26.76580972680496      44.876574274395175      77.587995307287358
   298   0   1   0.0      27.450199223215716      46.096387464389302      77.459025817840143
   299   0   1   0.0      26.703234795392262      47.278126177377594       77.35599759071755
   300   0   1   0.0      27.436376478489098      48.539022927812788      77.207771752583085
   301   0   1   0.0      28.773273274590665      60.871510697625162      76.553697534537193
   302   0   1   0.0      16.746307181881747      49.819297793494748      77.847329812755603
   303   0   1   0.0      28.885533237314494      51.021758377393908      76.944195680617909
   304   0   1   0.0      16.752262517746992       52.24706191478441      77.828150483217044
   305   0   1   0.0      28.815073175055232      53.448344893613182      76.739324798203754
   306   0   1   0.0      16.725006673721914      54.765599035995876      77.658321143187408
   307   0   1   0.0      28.859387124881621      55.914898047924126      76.646079884414064
   308   0   1   0.0      16.716336089805292      57.192737191027597      77.305016604188367
   309   0   1   0.0      28.795839562134493      58.396759862699646      76.527306837643422
   310   0   1   0.0      16.672574366868371      59.650818054437266       77.27769829160377
   311   0   1   0.0      18.189287574706157      49.770889663585038      77.824451226940823
   312   0   1   0.0      18.903958417106111      50.944712190114899       77.67512472110424
   313   0   1   0.0      18.142398202343649      52.223058995074354      77.577239556688909
   314   0   1   0.0      18.841622428802797      53.466488289335658      77.511499739557863
   315   0   1   0.0      18.148328217733859       54.71010678825207      77.543037755891007
   316   0   1   0.0      18.821149676566399       55.95640382159069      77.349264922764021
   317   0   1   0.0      18.105623551923397      57.177458111970473      77.305985530193425
   318   0   1   0.0      18.760039569854492      58.414906989614281      77.079753163266901
   319   0   1   0.0      18.124072277938819      59.648796513049156      77.159437085684559