LAMMPS (4 Feb 2025)
OMP_NUM_THREADS environment is not set. Defaulting to 1 thread. (src/comm.cpp:99)
  using 1 OpenMP thread(s) per MPI task
# LAMMPS script for continuing NVT simulation

atom_modify map yes
newton      on

read_restart nvt_prod.restart.880000
Reading restart file ...
  restart file = 4 Feb 2025, LAMMPS = 4 Feb 2025
  restoring atom style full from restart
  orthogonal box = (0 0 0) to (152.92994 147.15691 151.07317)
  16 by 8 by 8 MPI processor grid
  pair style symmetrix/mace stores no restart info
  11640 atoms
Finding 1-2 1-3 1-4 neighbors ...
  special bond factors lj:    0        0        0       
  special bond factors coul:  0        0        0       
     0 = max # of 1-2 neighbors
     0 = max # of 1-3 neighbors
     0 = max # of 1-4 neighbors
     1 = max # of special neighbors
  special bonds CPU = 5.167 seconds
  read_restart CPU = 5.322 seconds

pair_style  symmetrix/mace
pair_coeff  * * ../../../00-common/models/ch2o-dens-inv_swa-1-6-8.json C H O
Loading MACE model from '../../../00-common/models/ch2o-dens-inv_swa-1-6-8.json' ... success
  mapping LAMMPS type 1 (C) to MACE type 1
  mapping LAMMPS type 2 (H) to MACE type 0
  mapping LAMMPS type 3 (O) to MACE type 2

group graphene type 1
8640 atoms in group graphene
group H2O type 2 3
3000 atoms in group H2O

thermo 1000

######### NVT production for 80 ps #############

dump DUMP1 all atom 100 nvt_prod_11.lammpstrj
timestep 0.001
fix NVT1 graphene nvt temp 300 300 0.1
Resetting global fix info from restart file:
  fix style: nvt, fix ID: NVT1
fix NVT2 H2O nvt temp 300 300 0.1
Resetting global fix info from restart file:
  fix style: nvt, fix ID: NVT2
run 80000
All restart file global fix info was re-assigned
Neighbor list info ...
  update: every = 1 steps, delay = 0 steps, check = yes
  max neighbors/atom: 2000, page size: 100000
  master list distance cutoff = 8
  ghost atom cutoff = 8
  binsize = 4, bins = 39 37 38
  1 neighbor lists, perpetual/occasional/extra = 1 0 0
  (1) pair symmetrix/mace, perpetual
      attributes: full, newton on
      pair build: full/bin
      stencil: full/bin/3d
      bin: standard
Per MPI rank memory allocation (min/avg/max) = 5.921 | 6.198 | 8.098 Mbytes
   Step          Temp          E_pair         E_mol          TotEng         Press     
    880000   299.34085     -1809896.5      0             -1809446.1      107.87035    
    881000   297.52945     -1809894.4      0             -1809446.8      63.748311    
    882000   297.95427     -1809888.4      0             -1809440.2      40.087579    
    883000   297.55242     -1809892.1      0             -1809444.5      81.173184    
    884000   302.83755     -1809892.2      0             -1809436.6      41.498204    
    885000   299.06794     -1809891.5      0             -1809441.5      69.466152    
    886000   298.00189     -1809887.5      0             -1809439.1      69.934293    
    887000   306.76357     -1809894.4      0             -1809432.9      70.789644    
    888000   298.45088     -1809893.5      0             -1809444.5      35.958135    
    889000   298.93071     -1809890.8      0             -1809441.1      70.695784    
    890000   298.33583     -1809886.9      0             -1809438        108.05054    
    891000   298.82956     -1809891        0             -1809441.4      83.169732    
    892000   306.31323     -1809888.1      0             -1809427.2     -6.5555775    
    893000   301.08297     -1809897.1      0             -1809444.2      57.121471    
    894000   298.14506     -1809890.5      0             -1809441.9      114.08583    
    895000   297.45614     -1809885.7      0             -1809438.1      76.362889    
    896000   298.13806     -1809893.5      0             -1809444.9      103.83345    
    897000   302.6433      -1809891.3      0             -1809436        27.143225    
    898000   296.62391     -1809888        0             -1809441.7      91.216189    
    899000   300.56644     -1809891.1      0             -1809438.9      66.194307    
    900000   296.51696     -1809880.5      0             -1809434.4      82.103628    
    901000   298.29181     -1809887.6      0             -1809438.9      79.078882    
    902000   303.24394     -1809887.8      0             -1809431.6      24.579251    
    903000   302.63972     -1809888.9      0             -1809433.5      89.349392    
    904000   299.98317     -1809894.4      0             -1809443.1      74.325738    
    905000   301.18859     -1809892.7      0             -1809439.6      35.814367    
    906000   299.39733     -1809889.4      0             -1809439        82.85421     
    907000   296.68726     -1809889.2      0             -1809442.8      57.939383    
    908000   299.00863     -1809887.6      0             -1809437.7      30.1488      
    909000   303.74271     -1809895.8      0             -1809438.8      58.055352    
    910000   299.24791     -1809895.6      0             -1809445.4      95.246647    
    911000   299.97737     -1809894.7      0             -1809443.4      65.830453    
    912000   302.00291     -1809889.4      0             -1809435.1      60.288024    
    913000   302.70599     -1809887.5      0             -1809432.1      58.871087    
    914000   297.17729     -1809886.3      0             -1809439.2      64.843205    
    915000   297.82883     -1809894.5      0             -1809446.4      100.12536    
    916000   303.52839     -1809884.7      0             -1809428.1      87.468709    
    917000   295.0431      -1809886.4      0             -1809442.5      4.4702545    
    918000   297.34622     -1809891.1      0             -1809443.8      108.94608    
    919000   300.96468     -1809891        0             -1809438.2      72.229261    
    920000   300.80805     -1809888.3      0             -1809435.7      35.707338    
    921000   298.51827     -1809886.9      0             -1809437.8      76.155697    
    922000   302.44252     -1809890.8      0             -1809435.8      82.72615     
    923000   299.18083     -1809892.2      0             -1809442.1      32.545753    
    924000   300.19299     -1809888.9      0             -1809437.2      52.723056    
    925000   305.00636     -1809892.6      0             -1809433.7      109.55651    
    926000   300.39801     -1809897.3      0             -1809445.3      2.2557442    
    927000   299.1843      -1809893.3      0             -1809443.2      85.320758    
    928000   303.34433     -1809892.8      0             -1809436.4      94.982818    
    929000   292.99668     -1809892.6      0             -1809451.8      61.42832     
    930000   299.60294     -1809887.9      0             -1809437.2      23.549188    
    931000   297.97267     -1809885.4      0             -1809437.1      55.857568    
    932000   299.1594      -1809892.9      0             -1809442.9      101.12314    
    933000   300.12689     -1809889        0             -1809437.5      55.051373    
    934000   300.33905     -1809891.7      0             -1809439.9      32.657337    
    935000   296.71728     -1809890.6      0             -1809444.2      58.648063    
    936000   300.49723     -1809886        0             -1809433.9      32.446845    
    937000   294.83958     -1809893.5      0             -1809450        52.916846    
    938000   297.87961     -1809883.4      0             -1809435.3      96.407964    
    939000   303.63781     -1809883.7      0             -1809426.9      52.447543    
    940000   300.41239     -1809890.5      0             -1809438.6      65.175766    
    941000   299.6641      -1809891.3      0             -1809440.4      68.806286    
    942000   297.08409     -1809891.6      0             -1809444.7      20.153391    
    943000   299.72896     -1809890.2      0             -1809439.3      84.733962    
    944000   304.29866     -1809886.6      0             -1809428.7      74.602119    
    945000   297.1848      -1809887.3      0             -1809440.2      38.327393    
    946000   298.19861     -1809885.4      0             -1809436.8      89.167977    
    947000   302.29842     -1809883.5      0             -1809428.7      56.680749    
    948000   296.69037     -1809889.6      0             -1809443.3      14.815173    
    949000   302.3696      -1809888        0             -1809433.1      35.474745    
    950000   301.40063     -1809887.3      0             -1809433.9      85.452321    
    951000   299.63059     -1809897.1      0             -1809446.3      78.617673    
    952000   300.64394     -1809893.5      0             -1809441.2      47.99811     
    953000   301.87439     -1809890.3      0             -1809436.2      81.62756     
    954000   301.97984     -1809894.2      0             -1809439.9      67.180604    
    955000   298.98626     -1809894.8      0             -1809444.9      76.840218    
    956000   301.8143      -1809887.3      0             -1809433.2      80.346279    
    957000   296.85094     -1809895.6      0             -1809449        55.243751    
    958000   295.73698     -1809892.1      0             -1809447.1      23.044966    
    959000   299.33111     -1809894.5      0             -1809444.2      79.815464    
    960000   297.0959      -1809885.8      0             -1809438.8      70.954215    
Loop time of 56557.9 on 1024 procs for 80000 steps with 11640 atoms

Performance: 0.122 ns/day, 196.382 hours/ns, 1.414 timesteps/s, 16.465 katom-step/s
100.0% CPU use with 1024 MPI tasks x 1 OpenMP threads

MPI task timing breakdown:
Section |  min time  |  avg time  |  max time  |%varavg| %total
---------------------------------------------------------------
Pair    | 0.1418     | 5662.5     | 31923      |8654.7 | 10.01
Bond    | 0.0031769  | 0.0080359  | 0.017717   |   4.0 |  0.00
Neigh   | 0.018465   | 0.14064    | 1.6657     |  56.5 |  0.00
Comm    | 0.48815    | 1898.7     | 10012      |4903.7 |  3.36
Output  | 0.89115    | 5.0621     | 10.08      | 121.9 |  0.01
Modify  | 20284      | 48984      | 56545      |3697.0 | 86.61
Other   |            | 7.352      |            |       |  0.01

Nlocal:        11.3672 ave         229 max           0 min
Histogram: 886 1 64 47 6 5 6 2 2 5
Nghost:        89.9336 ave        1298 max           0 min
Histogram: 786 29 160 13 12 7 3 3 7 4
Neighs:              0 ave           0 max           0 min
Histogram: 1024 0 0 0 0 0 0 0 0 0
FullNghs:      1218.01 ave       42458 max           0 min
Histogram: 887 107 7 4 6 4 1 2 3 3

Total # of neighbors = 1247238
Ave neighs/atom = 107.15103
Ave special neighs/atom = 0
Neighbor list builds = 3720
Dangerous builds = 0

write_restart nvt_prod.restart.*
System init for write_restart ...
write_data nvt_prod_final.lammps-data
System init for write_data ...

Total wall time: 15:43:03
