LAMMPS data file via write_data, version 4 Feb 2025, timestep = 960000, units = metal

11640 atoms
3 atom types

0 152.92994399999998 xlo xhi
0 147.156907225924 ylo yhi
0 151.07316997686289 zlo zhi

Masses

1 12.01099999691024
2 1.007999999740698
3 15.99899999588435

Atoms # full

6349 0 1 0 8.195148382203897 18.17233784921936 72.68909073698782 5 -1 7
5842 0 1 0 0.7869574207952548 1.070442363867037 73.37880643494026 5 -1 7
6082 0 1 0 5.085871376546616 1.0115927586565223 73.52575390491552 5 -1 7
6086 0 1 0 5.105211259194761 3.463434581324475 73.79286642118079 5 -1 7
6085 0 1 0 3.6573000687824075 3.522988523011005 73.83012266657508 5 -1 7
6081 0 1 0 3.634824539896095 1.023912513902861 73.47690508015667 5 -1 7
5848 0 1 0 2.9988228964335004 2.2720418308406263 73.58837819494912 5 -1 7
5847 0 1 0 1.5279830506416847 2.3116604333598225 73.53539654588798 5 -1 7
5846 0 1 0 0.7479858838223143 3.503896414114882 73.75179374537801 5 -1 7
6087 0 1 0 5.870023221222181 2.248676936981653 73.63708275767367 5 -1 7
6088 0 1 0 7.272798164645216 2.251190911678898 73.48379182601424 5 -1 7
6321 0 1 0 7.975211860044293 1.005655168525743 73.19839951696335 5 -1 7
6325 0 1 0 8.02790020198777 3.4983754682514516 73.51727939807218 5 -1 7
6322 0 1 0 9.396749469600103 0.9641073452501732 73.14106556565213 5 -1 7
6107 0 1 0 5.9869640261502095 14.524521281055327 73.14177611778344 5 -1 7
6326 0 1 0 9.38918450065521 3.4377270381948026 73.30687013968247 5 -1 7
6090 0 1 0 5.095485201820839 5.9440922905064175 73.73944480900822 5 -1 7
6089 0 1 0 3.676670232201197 5.9776995101547845 73.88059596916504 5 -1 7
5852 0 1 0 2.9484296472737515 4.734029550560531 73.9627066666867 5 -1 7
6094 0 1 0 5.217083705004241 8.411489929221998 73.78252695680428 5 -1 7
6093 0 1 0 3.77368230914326 8.400485291962815 73.9132333562828 5 -1 7
5856 0 1 0 2.979023724918802 7.1852140327210385 74.04161514646245 5 -1 7
5851 0 1 0 1.5252858763108523 4.7461916644700874 73.96904383712948 5 -1 7
5855 0 1 0 1.5297805317727324 7.168127124730117 74.07041028469519 5 -1 7
5854 0 1 0 0.8712372435785461 8.393416249853772 73.90017254612376 5 -1 7
5850 0 1 0 0.8073630825195866 5.94813559543233 73.92903663178886 5 -1 7
6095 0 1 0 5.9047555279104085 7.14172791298641 73.58706071692427 5 -1 7
6091 0 1 0 5.8296431127381 4.70944408836207 73.77421065602849 5 -1 7
6092 0 1 0 7.292376029187866 4.683082912260198 73.53235834890289 5 -1 7
6096 0 1 0 7.331661066609861 7.178349962144135 73.47422865442763 5 -1 7
6329 0 1 0 8.051268050845085 5.941192397093502 73.38687099063453 5 -1 7
6330 0 1 0 9.444793969504197 5.944905874410483 73.35283192262115 5 -1 7
6109 0 1 0 3.9642864752725355 18.1718978290307 72.13910594995804 5 -1 7
6333 0 1 0 8.057706541234717 8.416958044590933 73.4750869444737 5 -1 7
6334 0 1 0 9.475066859561082 8.38396570477885 73.49253244032585 5 -1 7
5862 0 1 0 0.9317535642371909 13.256842786087518 73.10057349725247 5 -1 7
6098 0 1 0 5.226499422667113 10.906473307674252 73.70610867241207 5 -1 7
6097 0 1 0 3.783471628114625 10.869036464432526 73.7360530503273 5 -1 7
5864 0 1 0 3.097809307615881 12.09635091150413 73.47221018932372 5 -1 7
5860 0 1 0 3.0679772629779745 9.626324288808913 73.82823281350426 5 -1 7
6102 0 1 0 5.280611341378906 13.320336898628517 73.39425828702639 5 -1 7
6101 0 1 0 3.7961956208968193 13.302460972714771 73.40103286366345 5 -1 7
5863 0 1 0 1.6376805513643589 12.032626872415277 73.41324557871182 5 -1 7
5859 0 1 0 1.630783363006185 9.617943785188432 73.73048195798755 5 -1 7
5858 0 1 0 0.9106198027479857 10.828575178280959 73.5489440973133 5 -1 7
6103 0 1 0 5.959543317343577 12.099702177077514 73.59057113975385 5 -1 7
6099 0 1 0 5.910163996710216 9.642960896334856 73.73135333803111 5 -1 7
6100 0 1 0 7.344935403313124 9.602259449120636 73.54107078077003 5 -1 7
6104 0 1 0 7.398493743153668 12.073772727629432 73.4876760844854 5 -1 7
6337 0 1 0 8.08347647973853 10.836799196552647 73.57633943484399 5 -1 7
6338 0 1 0 9.537774305848776 10.817478820080042 73.46341825259877 5 -1 7
6341 0 1 0 8.134266688075062 13.26019479549423 73.421696975132 5 -1 7
6342 0 1 0 9.548527673343862 13.253324388500051 73.40758149531236 5 -1 7
5868 0 1 0 3.101727139532402 14.57083649732599 73.12636512541523 5 -1 7
6106 0 1 0 5.284400362787449 15.772426748508325 72.83293660479359 5 -1 7
6105 0 1 0 3.886460574561933 15.755131210253191 72.88404720138908 5 -1 7
5872 0 1 0 3.184816999600948 16.942817873353142 72.41262430385117 5 -1 7
5871 0 1 0 1.751709990939033 16.887800883210137 72.27388475659436 5 -1 7
5867 0 1 0 1.6744500812270884 14.480164232243684 72.86914096905946 5 -1 7
5866 0 1 0 0.9924131950776603 15.625130922792247 72.39595975585802 5 -1 7
6111 0 1 0 6.0885925382574815 16.88297413013656 72.57184721354997 5 -1 7
6345 0 1 0 8.124044805438624 15.764828759254486 73.22196488024133 5 -1 7
6112 0 1 0 7.470427685559555 16.954214705097833 72.80232550077743 5 -1 7
6108 0 1 0 7.4363537934822075 14.500897972004777 73.25177654537049 5 -1 7
6110 0 1 0 5.403708646160602 18.152431392975743 72.21506309858196 5 -1 7
5870 0 1 0 1.1223353806796488 18.111168159087743 71.81769828086752 5 -1 7
5880 0 1 0 3.3456073372131896 21.783719177672175 71.41424182250859 5 -1 7
5879 0 1 0 1.8969835591392057 21.7708769074857 71.23800994958285 5 -1 7
5875 0 1 0 1.8642866416762471 19.319179876232553 71.5705306674414 5 -1 7
5874 0 1 0 1.187494897765032 20.537319502753547 71.37595970737019 5 -1 7
5882 0 1 0 1.2806903132341927 25.480960437595495 70.7739686987417 5 -1 7
5878 0 1 0 1.2427872793532933 22.993734583592364 70.97691599449178 5 -1 7
6117 0 1 0 4.036227471037062 23.036642662098753 71.4632575742846 5 -1 7
6121 0 1 0 4.03810409106295 25.516518347463435 71.33823518786448 5 -1 7
5884 0 1 0 3.3434959295415307 24.245731673258007 71.2160695804466 5 -1 7
5888 0 1 0 3.3721534394324273 26.7341767550384 71.11639297240289 5 -1 7
5887 0 1 0 1.9941052622361022 26.69989635324673 70.81835371495023 5 -1 7
5883 0 1 0 1.953472749301377 24.26749601747398 71.0655074916072 5 -1 7
6122 0 1 0 5.4394802301579706 25.47904464861506 71.60158269482565 5 -1 7
6118 0 1 0 5.397798179766185 23.042721210171294 71.67925817524758 5 -1 7
6123 0 1 0 6.130539231579043 24.245854152299952 71.75789153801244 5 -1 7
6127 0 1 0 6.133056573044188 26.76076145159309 71.8294266973619 5 -1 7
6128 0 1 0 7.572507720166951 26.75127902912549 72.01010161818549 5 -1 7
5886 0 1 0 1.335463098945634 27.921628482927858 70.57976851480126 5 -1 7
6129 0 1 0 4.0855087488991115 30.47418073028121 71.32407422434656 5 -1 7
6125 0 1 0 4.0888980814807825 27.994028572576145 71.20319437408315 5 -1 7
5892 0 1 0 3.4388671966705413 29.233475434029373 71.07894982272983 5 -1 7
5891 0 1 0 2.009376199376736 29.168691689576967 70.80239557861597 5 -1 7
5896 0 1 0 3.306376275372898 31.619257124852833 71.30625947474644 5 -1 7
5895 0 1 0 1.899273433521859 31.606358021362688 71.04310136317267 5 -1 7
5890 0 1 0 1.2010701396744154 30.36428976638998 70.8442646073292 5 -1 7
6130 0 1 0 5.4582437765537835 30.4435391893156 71.61285659273287 5 -1 7
6126 0 1 0 5.465939874266294 27.999915651750083 71.60305817572804 5 -1 7
6131 0 1 0 6.163422757914657 29.196592835340024 71.74996939461697 5 -1 7
6132 0 1 0 7.593005977252545 29.196862896302008 72.07456178741792 5 -1 7
6365 0 1 0 8.331939986354525 27.962083089388948 72.13648391355409 5 -1 7
6369 0 1 0 8.287605144160459 30.432692931039053 72.16803145376626 5 -1 7
6136 0 1 0 7.563101930339398 31.680731603361895 72.06342292614973 5 -1 7
6135 0 1 0 6.146334810738472 31.66446711721611 71.81743189073202 5 -1 7
5894 0 1 0 1.1959993242390063 32.820542384571134 71.10734771875146 5 -1 7
6133 0 1 0 4.001033768534075 32.834639995830656 71.48588037418857 5 -1 7
6137 0 1 0 4.033534780203754 35.346630223505734 71.47945595180228 5 -1 7
5900 0 1 0 3.3185434505521916 34.08582126315686 71.31565782769702 5 -1 7
5899 0 1 0 1.863278453820629 34.09064343785412 71.20187032650598 5 -1 7
5898 0 1 0 1.1358275774699065 35.30011210832778 71.26984053326127 5 -1 7
6140 0 1 0 7.513149709106406 34.13189782316114 72.28339081978132 5 -1 7
6134 0 1 0 5.426111826013926 32.86652360455427 71.74591868401971 5 -1 7
6138 0 1 0 5.424383837525379 35.34095676562436 71.78217229903466 5 -1 7
6373 0 1 0 8.263269813831021 32.93685343970202 72.32856001490579 5 -1 7
6139 0 1 0 6.1537718085169795 34.12864126130688 71.88491978526442 5 -1 7
6377 0 1 0 8.224656523742828 35.3811516426899 72.27791801808773 5 -1 7
6114 0 1 0 5.447770084385841 20.587169927539115 71.89522393344437 5 -1 7
6113 0 1 0 4.026439821583146 20.59028459978618 71.682606037651 5 -1 7
5876 0 1 0 3.308430755270751 19.374756811687973 71.79052544949928 5 -1 7
5903 0 1 0 1.8672420307394992 36.53703149558533 71.38336630272958 5 -1 7
6143 0 1 0 6.104872916983301 36.56790192063299 71.95306702914803 5 -1 7
6115 0 1 0 6.149477319361574 19.33842816750285 72.12612511087106 5 -1 7
6119 0 1 0 6.1473601758948915 21.82054848814602 71.99198382423094 5 -1 7
6116 0 1 0 7.516469256985348 19.336133914209583 72.32738897701049 5 -1 7
6120 0 1 0 7.51012246022035 21.842698694624872 72.37092689170996 5 -1 7
6353 0 1 0 8.19068590766073 20.587944707880208 72.51770105924517 5 -1 7
5904 0 1 0 3.26420767807125 36.5694618943174 71.53169501362947 5 -1 7
6124 0 1 0 7.483698209246457 24.29852636139419 72.01511702639996 5 -1 7
6361 0 1 0 8.185673315769362 25.48853799465832 72.11691110180219 5 -1 7
6357 0 1 0 8.242579361090375 23.091176708218587 72.35174755215229 5 -1 7
6144 0 1 0 7.500167845318013 36.59950141374128 72.0700392060586 5 -1 7
6141 0 1 0 3.939320921281806 37.774385224818644 71.55248185456607 5 -1 7
5908 0 1 0 3.2302164642689077 38.99734428067257 71.56488572363374 5 -1 7
6405 0 1 0 8.057876061425599 52.54543739211206 73.37853122822237 5 -1 7
5907 0 1 0 1.8207716005529522 38.98343239741218 71.51041179608715 5 -1 7
5902 0 1 0 1.1105933491877777 37.76698921264916 71.34625110039495 5 -1 7
5906 0 1 0 1.0928822907041351 40.1938800487825 71.46624363032308 5 -1 7
6172 0 1 0 7.34730494262566 53.81657503483738 73.22817139125185 5 -1 7
6142 0 1 0 5.345968109860183 37.80762368179463 71.88883650672611 5 -1 7
6147 0 1 0 6.019813087798338 38.984776840547674 72.13811352777833 5 -1 7
6406 0 1 0 9.492430654557175 52.61408096913011 73.44092231402692 5 -1 7
6168 0 1 0 7.406378823933197 51.33447935121206 73.23903744277122 5 -1 7
6145 0 1 0 3.9385495083375957 40.18899848988535 71.83603080977842 5 -1 7
6146 0 1 0 5.31461759420742 40.2373905801994 72.13096581758604 5 -1 7
6148 0 1 0 7.432444898294325 39.07857105960207 72.41831856367433 5 -1 7
6381 0 1 0 8.235381410292316 37.87418934133715 72.43993737462597 5 -1 7
6170 0 1 0 5.277635012723728 55.01107010258341 72.97164592904532 5 -1 7
6410 0 1 0 9.475942983550654 55.084424809850375 73.58886472497224 5 -1 7
6385 0 1 0 8.19353440111084 40.306784147903954 72.58092206579329 5 -1 7
6149 0 1 0 3.9324239507397634 42.70919590307667 71.9291407472647 5 -1 7
5912 0 1 0 3.24809938437304 41.42232814711783 71.71875604115772 5 -1 7
5916 0 1 0 3.236734763357194 43.89399086028072 71.95301035122667 5 -1 7
6153 0 1 0 3.8992330244963145 45.15116977291817 72.25367238043422 5 -1 7
6154 0 1 0 5.295060297026438 45.15873689028174 72.48509396708829 5 -1 7
5911 0 1 0 1.8089687643092134 41.40567544542862 71.64056003742306 5 -1 7
5915 0 1 0 1.786838428808532 43.931108423401426 71.73632912741785 5 -1 7
5914 0 1 0 1.0834173960446647 45.169812163067824 71.68289714681876 5 -1 7
5910 0 1 0 1.137748696364886 42.67510922309778 71.57796045391753 5 -1 7
6150 0 1 0 5.315157449424626 42.75942297778451 72.18396203620158 5 -1 7
6151 0 1 0 5.98936992408476 41.50058849612051 72.28930084135428 5 -1 7
6155 0 1 0 5.994310725611747 43.98573806016128 72.35629675895846 5 -1 7
6152 0 1 0 7.489366036450945 41.57343238936968 72.46632499708372 5 -1 7
6156 0 1 0 7.398073372308542 44.019589617682186 72.61097454121506 5 -1 7
6389 0 1 0 8.109666518176498 42.8069952111616 72.62870904819258 5 -1 7
5930 0 1 0 0.9290570603701248 55.02004418308074 72.65793155699821 5 -1 7
6393 0 1 0 8.130509835398492 45.22258588590326 72.7303392740307 5 -1 7
6394 0 1 0 9.533723137013007 45.181864966497734 72.86979395874903 5 -1 7
5922 0 1 0 0.971211145652794 50.08166927888067 72.25482235010625 5 -1 7
5918 0 1 0 1.0333537632820597 47.605121985640814 72.02352088639411 5 -1 7
5920 0 1 0 3.17369565724384 46.40057371543857 72.3422963240416 5 -1 7
6158 0 1 0 5.297529452743066 47.63628871595424 72.84655661090088 5 -1 7
6157 0 1 0 3.8651418041357126 47.646524863379646 72.61827770698653 5 -1 7
5924 0 1 0 3.071841992887372 48.8242872161172 72.60620613718213 5 -1 7
5919 0 1 0 1.8088593260841086 46.367758206030516 71.95239539642516 5 -1 7
6162 0 1 0 5.239413057077814 50.03423282299773 72.97075671520624 5 -1 7
6161 0 1 0 3.8312258042422322 50.064019044881725 72.73527916603233 5 -1 7
5923 0 1 0 1.6839034264235813 48.8340339267691 72.35650922772004 5 -1 7
6159 0 1 0 5.992934533626477 46.3913928599736 72.74912599811525 5 -1 7
6160 0 1 0 7.409732254561914 46.46532845530194 72.84099693174501 5 -1 7
6163 0 1 0 5.954467272577216 48.85585580511229 73.08393107519737 5 -1 7
6164 0 1 0 7.403390563620779 48.92679207878153 73.13516183453739 5 -1 7
6397 0 1 0 8.10347600616856 47.682575465475985 73.09329360381959 5 -1 7
6398 0 1 0 9.524886982336406 47.66114051679165 73.24386087158379 5 -1 7
6401 0 1 0 8.129188468970073 50.13760072335433 73.2419632008022 5 -1 7
6402 0 1 0 9.525641104841657 50.11313089937581 73.41618734257526 5 -1 7
5926 0 1 0 0.9819473056091544 52.56049577013662 72.44666160058473 5 -1 7
5932 0 1 0 3.070808267525954 53.792826429255776 72.76722107890942 5 -1 7
6166 0 1 0 5.224445792335226 52.52827001947825 72.885763186061 5 -1 7
6165 0 1 0 3.786224693194294 52.60203492480432 72.79346996583632 5 -1 7
5928 0 1 0 3.128820890483666 51.30173153580495 72.69614684093283 5 -1 7
5931 0 1 0 1.67082023112439 53.79969368631728 72.59141944260627 5 -1 7
5927 0 1 0 1.6963194148239225 51.28734514985392 72.46404972943427 5 -1 7
6167 0 1 0 5.957870223243126 51.297223082259485 72.99350085261861 5 -1 7
6171 0 1 0 5.944723933346643 53.7842465471179 72.94561763282178 5 -1 7
6409 0 1 0 8.031512943165065 55.04593544619664 73.40411253087534 5 -1 7
6169 0 1 0 3.8375025019051368 55.03547943057218 72.87237768396871 5 -1 7
5958 0 1 0 0.7789848343017365 72.25584312741799 73.09273118186543 5 -1 7
6174 0 1 0 5.191400553852437 57.49261971102046 73.34424414443433 5 -1 7
6173 0 1 0 3.7711811008371363 57.492790845680446 73.20866609110372 5 -1 7
5940 0 1 0 3.0951638275437023 58.68319565368921 73.07380099626066 5 -1 7
5936 0 1 0 3.083226085791251 56.23218107335827 72.99190602384833 5 -1 7
5935 0 1 0 1.6867944343057208 56.23586854229147 72.78760936309939 5 -1 7
5939 0 1 0 1.6558452530498924 58.70482695709691 72.91377511506022 5 -1 7
5934 0 1 0 0.9523692374581296 57.42622141785915 72.7890849027317 5 -1 7
6434 0 1 0 9.323852070041927 69.87413895109613 72.71666119527798 5 -1 7
6200 0 1 0 7.153431801338223 71.10768675640334 72.81122414746551 5 -1 7
6175 0 1 0 5.9119192435997565 56.268344504454575 73.19946280491436 5 -1 7
6179 0 1 0 5.884097896542547 58.69873027362538 73.4248714301138 5 -1 7
6180 0 1 0 7.317553598666655 58.74340047122715 73.63684416284156 5 -1 7
6176 0 1 0 7.330817158606955 56.278421663006505 73.38669205821036 5 -1 7
6193 0 1 0 3.6338395610368086 69.84397885672746 73.10847611358966 5 -1 7
6413 0 1 0 8.00961499191441 57.528647905534775 73.61006839228347 5 -1 7
5960 0 1 0 2.957511672972041 71.07948007552149 73.11513407399774 5 -1 7
6414 0 1 0 9.448623718896112 57.55227856596949 73.64739947288264 5 -1 7
6438 0 1 0 9.268024928625671 72.40170539155201 72.57142853702815 5 -1 7
6178 0 1 0 5.16769259812339 59.9674988317577 73.38499167643768 5 -1 7
6182 0 1 0 5.174906627936368 62.415365829937834 73.33810725744391 5 -1 7
6177 0 1 0 3.763245293867498 59.91815686438229 73.21353358224269 5 -1 7
6181 0 1 0 3.73965119176325 62.413227986706694 73.28204715320463 5 -1 7
5948 0 1 0 3.015143091209249 63.643677736590234 73.22086628662692 5 -1 7
5944 0 1 0 3.0279762315518304 61.176617567885536 73.21478579059446 5 -1 7
5943 0 1 0 1.63378018288912 61.20982634949136 72.91513417106113 5 -1 7
5947 0 1 0 1.6141973925248758 63.65020596533119 73.0373280445233 5 -1 7
5938 0 1 0 0.9408958781871608 59.94122633531714 72.86521312782213 5 -1 7
5942 0 1 0 0.9352322099829496 62.422511202349774 72.88006168176007 5 -1 7
6183 0 1 0 5.860250765299853 61.18532802432848 73.3877201207884 5 -1 7
6187 0 1 0 5.902164539817409 63.67320986171076 73.33828686537973 5 -1 7
6184 0 1 0 7.317374762145589 61.25658151476078 73.51015574080904 5 -1 7
6188 0 1 0 7.320405624803012 63.67094472488036 73.3630580322343 5 -1 7
6417 0 1 0 8.046229569153056 59.99513572632586 73.62649976038072 5 -1 7
6421 0 1 0 7.982041258363264 62.44744869701302 73.48970385259365 5 -1 7
6418 0 1 0 9.420947230336932 60.02741599363145 73.74959773373352 5 -1 7
6422 0 1 0 9.386264426822969 62.51800399580963 73.41834867830534 5 -1 7
6433 0 1 0 7.893534695798274 69.88164723996208 72.90173468800593 5 -1 7
6437 0 1 0 7.835694173362345 72.33994157636084 72.58326630586707 5 -1 7
5950 0 1 0 0.8218462141879604 67.33034407979004 73.17270447650579 5 -1 7
5952 0 1 0 2.97992850600777 66.06442843671384 73.18952219983572 5 -1 7
6190 0 1 0 5.0560355236488235 67.38430485809187 73.09759105561207 5 -1 7
6186 0 1 0 5.150200991235526 64.91801913454688 73.21548530312216 5 -1 7
6185 0 1 0 3.7417597050542786 64.8411005234805 73.27986463721604 5 -1 7
6189 0 1 0 3.673526418002133 67.30445369685943 73.19150908030504 5 -1 7
5956 0 1 0 2.9045604113755212 68.57458260222552 73.18688722040773 5 -1 7
5951 0 1 0 1.5745823396061298 66.1337515672914 73.11602130352834 5 -1 7
5955 0 1 0 1.489788387730916 68.58614278407366 73.29560247773874 5 -1 7
5946 0 1 0 0.8868952163687086 64.9060969469918 73.1274610392115 5 -1 7
6199 0 1 0 5.741348487191115 71.11244348375996 72.8605021714543 5 -1 7
6191 0 1 0 5.809529074832985 66.1611489301568 73.11156997232729 5 -1 7
6195 0 1 0 5.7727336378077885 68.62093303566061 73.01597362426054 5 -1 7
6192 0 1 0 7.247700701568725 66.19739442763193 73.08577192016209 5 -1 7
6429 0 1 0 7.904759936604617 67.40292285382051 72.96704631038563 5 -1 7
6425 0 1 0 8.02021581459292 64.93777611836602 73.20994148478246 5 -1 7
6426 0 1 0 9.395704748533353 64.99808319521573 73.19749383473092 5 -1 7
6430 0 1 0 9.352172344845174 67.43623886775914 72.94935385520837 5 -1 7
6194 0 1 0 5.0857691131301905 69.84772398841754 72.97770408999428 5 -1 7
6196 0 1 0 7.210409930865069 68.63883656507831 72.98889643251209 5 -1 7
6198 0 1 0 5.02760646487189 72.39234658942945 72.77321814431949 5 -1 7
6197 0 1 0 3.6195431877014013 72.33045433334652 72.9483495455215 5 -1 7
5959 0 1 0 1.503937569305367 71.05173411958782 73.19055127190072 5 -1 7
5954 0 1 0 0.7672611898475773 69.81953963987144 73.2526124368958 5 -1 7
5963 0 1 0 1.4923990958554432 73.49228130316651 72.99226921434068 5 -1 7
5964 0 1 0 2.912506374189978 73.50647158391843 72.9561538495883 5 -1 7
6446 0 1 0 9.194793636999464 77.22683502261705 71.5282964814309 5 -1 7
6210 0 1 0 4.901749507642245 79.7039344019867 71.91846471913473 5 -1 7
6214 0 1 0 4.888259680721206 82.14268999355903 71.59361533874731 5 -1 7
6213 0 1 0 3.4426574447848686 82.10111195744334 71.72083001324452 5 -1 7
6215 0 1 0 5.577395697867295 80.88738998667175 71.69687356936474 5 -1 7
6211 0 1 0 5.60300156461809 78.45331450925312 71.91266855444921 5 -1 7
6216 0 1 0 6.975519217883618 80.88856280577298 71.35438405820514 5 -1 7
6212 0 1 0 7.0201962435831105 78.44633543827351 71.62886900030352 5 -1 7
6449 0 1 0 7.7185883407406815 79.66791038370731 71.36775042758848 5 -1 7
5990 0 1 0 0.3413832355084541 91.82443295033819 70.30287516689788 5 -1 7
6450 0 1 0 9.077280067627703 79.62091810998301 71.01191289880195 5 -1 7
5986 0 1 0 0.3806161104120057 89.4126720652041 70.91720312334553 5 -1 7
6453 0 1 0 7.734981936169174 82.11528441132349 71.14980731700614 5 -1 7
6454 0 1 0 9.093942201284023 82.09933938839951 70.83721430435057 5 -1 7
6223 0 1 0 5.485776800712728 85.78907225803688 71.00880320258466 5 -1 7
5980 0 1 0 2.7242741889071387 83.32851005041167 71.66278903672618 5 -1 7
6218 0 1 0 4.823040283426273 84.5427457213872 71.17852838439133 5 -1 7
6217 0 1 0 3.3776506548532 84.5762457840677 71.40736909086661 5 -1 7
5984 0 1 0 2.628416565627526 85.79486303559345 71.26755045769865 5 -1 7
6222 0 1 0 4.747823448045942 87.01533001236895 70.94585069192239 5 -1 7
6221 0 1 0 3.3429786125052194 86.97129929460587 71.06937943417422 5 -1 7
5979 0 1 0 1.2839453377847045 83.28744797420748 71.71243213732781 5 -1 7
5983 0 1 0 1.2082743562878717 85.78717234738255 71.42266658911726 5 -1 7
6219 0 1 0 5.540873732879056 83.34595773208788 71.32105698689503 5 -1 7
6462 0 1 0 8.961612157283122 87.01330645703148 70.14973443012775 5 -1 7
5972 0 1 0 2.84147426813786 78.38869578034529 72.23331861436483 5 -1 7
6461 0 1 0 7.590103215891907 87.02275281470571 70.4314847555646 5 -1 7
6224 0 1 0 6.92880919008061 85.78431683784626 70.74249642981702 5 -1 7
6220 0 1 0 6.953787044227471 83.38028862528513 71.04867183197123 5 -1 7
6457 0 1 0 7.631098492303709 84.58865354833415 70.76402130495279 5 -1 7
6458 0 1 0 9.010249847969424 84.55947285991266 70.53308321291115 5 -1 7
5971 0 1 0 1.42959672580461 78.38970817131901 72.27815325825966 5 -1 7
6231 0 1 0 5.311104133738567 90.69155283258233 70.13246135873997 5 -1 7
6226 0 1 0 4.631046706572885 89.44069209030347 70.44216479205275 5 -1 7
6225 0 1 0 3.2059516671111865 89.42999306353624 70.68021583789995 5 -1 7
5992 0 1 0 2.4801427280026647 90.62107252569913 70.48816083191413 5 -1 7
5988 0 1 0 2.568351258501867 88.20224187221062 70.95402916959911 5 -1 7
6227 0 1 0 5.407394968807707 88.24038319367192 70.6401938252155 5 -1 7
5987 0 1 0 1.1584402863257086 88.23489354668104 71.09977527797865 5 -1 7
5991 0 1 0 1.0666592797057262 90.63061755923867 70.67644511891038 5 -1 7
6230 0 1 0 4.573225419450231 91.82816928512241 69.8891682362962 5 -1 7
5975 0 1 0 1.3329047341707458 80.83774459448425 72.17387121865019 5 -1 7
6228 0 1 0 6.835429402914793 88.24475475649348 70.41392765014825 5 -1 7
5976 0 1 0 2.8317488813665865 80.85876606296047 71.98687001372429 5 -1 7
6466 0 1 0 8.941274450750363 89.41132662077376 69.80747012706783 5 -1 7
6232 0 1 0 6.726090981872895 90.62513862382048 69.96118283072146 5 -1 7
6465 0 1 0 7.519281257456355 89.42448123112075 70.0907816854663 5 -1 7
6209 0 1 0 3.507083368924019 79.67491559622312 72.09939335627661 5 -1 7
6470 0 1 0 8.843332379308341 91.83393678309676 69.37167785101047 5 -1 7
6469 0 1 0 7.405421243548695 91.84847107729483 69.62468891752414 5 -1 7
6206 0 1 0 4.951702496728049 77.23918377461268 72.12781414085694 5 -1 7
6202 0 1 0 5.015418007947514 74.77057680478377 72.54555500802536 5 -1 7
6201 0 1 0 3.5983257505639794 74.73093631425766 72.74784130974098 5 -1 7
6205 0 1 0 3.5417024507579407 77.21589694563922 72.34237279879355 5 -1 7
5982 0 1 0 0.49853972025258864 86.97083530677126 71.33775592175765 5 -1 7
5968 0 1 0 2.8980569696960052 75.9926724460552 72.5370759972627 5 -1 7
5974 0 1 0 0.6148359349159247 82.09738560373087 72.01942864501122 5 -1 7
5967 0 1 0 1.4526672140691705 75.96308243974785 72.71104824877327 5 -1 7
5962 0 1 0 0.7412225113780407 74.6900036317883 72.90874105353988 5 -1 7
5966 0 1 0 0.699673641420114 77.20134874705825 72.49109873909147 5 -1 7
5978 0 1 0 0.5219044675161723 84.52709203110422 71.68425592652918 5 -1 7
6207 0 1 0 5.656210247305825 76.00267844985864 72.20821350444223 5 -1 7
5970 0 1 0 0.6866743739540808 79.60728872692282 72.29324101158569 5 -1 7
6208 0 1 0 7.100351197267659 76.03157457153769 72.03533171399978 5 -1 7
6441 0 1 0 7.813836454735235 74.82201571662577 72.20770340111488 5 -1 7
6445 0 1 0 7.767673710560716 77.26054317513433 71.79010103592103 5 -1 7
6442 0 1 0 9.298040372060708 74.87715604715987 72.18092324971197 5 -1 7
6229 0 1 0 3.1701539815003796 91.79791697624827 70.13585664555605 5 -1 7
6203 0 1 0 5.746141890807947 73.60563578270981 72.68081621183167 5 -1 7
6204 0 1 0 7.131627905039328 73.59958751836085 72.47165924909814 5 -1 7
6235 0 1 0 5.209149294682651 92.99673002427761 69.40957468396623 5 -1 7
6234 0 1 0 4.536742009973833 94.2221311868299 69.14067769571415 5 -1 7
6239 0 1 0 5.2253708950478925 95.45389147522101 68.89441807989492 5 -1 7
6233 0 1 0 3.1512041896531673 94.22546207277088 69.34588085061864 5 -1 7
6000 0 1 0 2.4135834580050153 95.45081678031923 69.20901039537208 5 -1 7
5996 0 1 0 2.465000986029787 93.04083180998609 69.83733161991393 5 -1 7
5995 0 1 0 1.0647698095706246 93.03911967427325 69.93664769953459 5 -1 7
5999 0 1 0 0.9904576798978771 95.44623300842854 69.36880699829214 5 -1 7
6236 0 1 0 6.644729600132353 93.03005976041408 69.38395586943916 5 -1 7
6240 0 1 0 6.6605504999800935 95.43594063201493 68.78939516646143 5 -1 7
6473 0 1 0 7.364862172192559 94.20054586808554 69.02638500530914 5 -1 7
6479 0 1 0 9.460189607415392 95.39694747699589 68.49031773106695 5 -1 7
6474 0 1 0 8.76183438848457 94.17906961773888 68.86567153301166 5 -1 7
6475 0 1 0 9.504261784441658 93.02634252616727 69.0127774073347 5 -1 7
5768 0 1 0 2.419240069974363 100.39820072509428 68.9512394547501 5 -2 7
6238 0 1 0 4.526443939291879 96.71087934861099 68.85817380924541 5 -1 7
6002 0 1 0 4.527692318951649 99.10400965037967 68.70594372714574 5 -2 7
6003 0 1 0 5.232717171718979 97.90964357249293 68.68371800891634 5 -2 7
6007 0 1 0 5.180291733554196 100.37164630626768 68.50772153326528 5 -2 7
6237 0 1 0 3.0805553939333112 96.68827035151611 69.02475556626594 5 -1 7
6001 0 1 0 3.103201764256013 99.08993656440866 68.82029205572393 5 -2 7
5764 0 1 0 2.351994501647918 97.86449555078958 68.9780990826614 5 -2 7
5763 0 1 0 0.9179116050329509 97.93570912384831 69.24379146798107 5 -2 7
5767 0 1 0 0.9360488109954812 100.37290814238985 69.04266129726908 5 -2 7
6008 0 1 0 6.566163979692414 100.31059724476695 68.20138963799747 5 -2 7
6241 0 1 0 7.268733011058467 99.07348902068259 68.13265431720363 5 -2 7
6242 0 1 0 8.742372916865007 99.10587661823367 67.88065229714562 5 -2 7
6247 0 1 0 9.38105104745728 100.30259255537766 67.62922232395826 5 -2 7
6243 0 1 0 9.456135663911576 97.83643870450021 68.07198904274989 5 -2 7
6478 0 1 0 8.77903432553958 96.64740175400765 68.41001127655207 5 -1 7
6477 0 1 0 7.340923847131348 96.65400673380053 68.60002982021796 5 -1 7
6004 0 1 0 6.641241172036181 97.86662065785143 68.46982469811658 5 -2 7
5772 0 1 0 2.3654868099201143 102.8141117594705 68.8327320141936 5 -2 7
6010 0 1 0 4.465123804440429 104.07249225042003 68.40734292802847 5 -2 7
6006 0 1 0 4.493652244274663 101.60855586574326 68.57871267886999 5 -2 7
6011 0 1 0 5.1907494391281155 102.86108030036594 68.35109933760317 5 -2 7
6005 0 1 0 3.1300323657319487 101.60774357476795 68.87127814460841 5 -2 7
6009 0 1 0 3.023297237917022 104.04761204809839 68.64753865645574 5 -2 7
5776 0 1 0 2.287229626604341 105.246921911488 68.74928650468938 5 -2 7
6015 0 1 0 5.112633374537979 105.27342993149104 68.23673316149767 5 -2 7
5771 0 1 0 0.9388100208170078 102.77731714824921 69.0674048255073 5 -2 7
5775 0 1 0 0.8721748556868 105.29603939665125 68.83117296028665 5 -2 7
6012 0 1 0 6.534027586572831 102.7705856488294 67.97751122170924 5 -2 7
6249 0 1 0 7.261413339893538 104.06219288402465 67.80609562694266 5 -2 7
6245 0 1 0 7.277677964428897 101.48886788159284 67.96054564580415 5 -2 7
6246 0 1 0 8.644363874840916 101.5551267496429 67.69333876257933 5 -2 7
6250 0 1 0 8.634007370943802 104.09166580705097 67.57845744806838 5 -2 7
6251 0 1 0 9.370840567988903 102.78709550436876 67.6381827690783 5 -2 7
6255 0 1 0 9.40115639957914 105.28879776664402 67.52276842520419 5 -2 7
6016 0 1 0 6.540753159128719 105.3034680045654 67.92359708621537 5 -2 7
5780 0 1 0 2.2639829136292344 107.75405938362258 68.46383740038632 5 -2 7
6018 0 1 0 4.3815840237182115 109.01614286052964 68.12519116773498 5 -2 7
6014 0 1 0 4.391256266389604 106.55654893583119 68.24533796800544 5 -2 7
6019 0 1 0 5.071386074622004 107.74173063602925 68.01991495585153 5 -2 7
6013 0 1 0 2.983619490022118 106.48706089780259 68.51532858303345 5 -2 7
6017 0 1 0 2.955566362298505 109.01077886566299 68.26352265933723 5 -2 7
5779 0 1 0 0.860123646730794 107.73737719719601 68.63918952654669 5 -2 7
6259 0 1 0 9.371452282450756 107.75726705239954 67.56252126877186 5 -2 7
6020 0 1 0 6.500329539298302 107.79388816728826 67.77888758272415 5 -2 7
6254 0 1 0 8.66204454677086 106.52526597673865 67.59884204238803 5 -2 7
6257 0 1 0 7.21905738165787 109.02095625988154 67.76870384562595 5 -2 7
6253 0 1 0 7.26733227693953 106.54545545037571 67.7973382810198 5 -2 7
6258 0 1 0 8.6436824051907 109.01735639156979 67.60810123432293 5 -2 7
6024 0 1 0 6.500801989342499 110.22542062349301 67.9131696259492 5 -2 7
6263 0 1 0 9.373182533933104 110.19760597030466 67.7297423190497 5 -2 7
6023 0 1 0 5.065393713163205 110.22346222365641 68.07306250277342 5 -2 7
5994 0 1 0 0.2890406855662815 94.18710789710342 69.62517400620784 5 -1 7
5783 0 1 0 0.8317985335929997 110.2065965270627 68.60525423559713 5 -2 7
5784 0 1 0 2.2259760998134497 110.26095355693661 68.31342919404783 5 -2 7
5998 0 1 0 0.2296804310330516 96.71083184050191 69.34510701002877 5 -1 7
5762 0 1 0 0.17994478770416272 99.1479703409966 69.20011927263232 5 -2 7
5766 0 1 0 0.2210450833458872 101.54870907218377 69.21044733631665 5 -2 7
5774 0 1 0 0.10943663263777083 106.49371944393708 68.76829218454111 5 -2 7
5770 0 1 0 0.1688246748491591 104.01475881186687 69.06527381489985 5 -2 7
5778 0 1 0 0.11759369310126974 108.98004667823263 68.75775979360628 5 -2 7
6027 0 1 0 5.084266597265342 112.695561157112 68.07236600297642 5 -2 7
6022 0 1 0 4.369978564290167 111.44472081737622 68.19667308772057 5 -2 7
6026 0 1 0 4.378320701273538 113.96292426118735 68.27445317942505 5 -2 7
6021 0 1 0 2.9454170053464495 111.50067476343435 68.238507649267 5 -2 7
5787 0 1 0 0.8387735094088178 112.75872830821135 68.64115529161535 5 -2 7
6025 0 1 0 2.986109328477531 113.97942429137676 68.45949178353237 5 -2 7
5788 0 1 0 2.2744193158590424 112.7466673542293 68.43084587835207 5 -2 7
6048 0 1 0 6.750436713667901 125.0000832489359 69.67426170519423 5 -2 7
5794 0 1 0 0.2123680248517032 118.88811039017935 69.36189873873033 5 -2 7