LAMMPS (4 Feb 2025)
OMP_NUM_THREADS environment is not set. Defaulting to 1 thread. (src/comm.cpp:99)
  using 1 OpenMP thread(s) per MPI task
# LAMMPS script for continuing NVT simulation

atom_modify map yes
newton      on

read_restart nvt_prod.restart.880000
Reading restart file ...
  restart file = 4 Feb 2025, LAMMPS = 4 Feb 2025
  restoring atom style full from restart
  orthogonal box = (0 0 0) to (154.31602 148.49066 151.07317)
  16 by 8 by 8 MPI processor grid
  pair style symmetrix/mace stores no restart info
  11640 atoms
Finding 1-2 1-3 1-4 neighbors ...
  special bond factors lj:    0        0        0       
  special bond factors coul:  0        0        0       
     0 = max # of 1-2 neighbors
     0 = max # of 1-3 neighbors
     0 = max # of 1-4 neighbors
     1 = max # of special neighbors
  special bonds CPU = 3.887 seconds
  read_restart CPU = 4.039 seconds

pair_style  symmetrix/mace
pair_coeff  * * ../../../00-common/models/ch2o-dens-inv_swa-1-6-8.json C H O
Loading MACE model from '../../../00-common/models/ch2o-dens-inv_swa-1-6-8.json' ... success
  mapping LAMMPS type 1 (C) to MACE type 1
  mapping LAMMPS type 2 (H) to MACE type 0
  mapping LAMMPS type 3 (O) to MACE type 2

group graphene type 1
8640 atoms in group graphene
group H2O type 2 3
3000 atoms in group H2O

thermo 1000

######### NVT production for 80 ps #############

dump DUMP1 all atom 100 nvt_prod_11.lammpstrj
timestep 0.001
fix NVT1 graphene nvt temp 300 300 0.1
Resetting global fix info from restart file:
  fix style: nvt, fix ID: NVT1
fix NVT2 H2O nvt temp 300 300 0.1
Resetting global fix info from restart file:
  fix style: nvt, fix ID: NVT2
run 80000
All restart file global fix info was re-assigned
Neighbor list info ...
  update: every = 1 steps, delay = 0 steps, check = yes
  max neighbors/atom: 2000, page size: 100000
  master list distance cutoff = 8
  ghost atom cutoff = 8
  binsize = 4, bins = 39 38 38
  1 neighbor lists, perpetual/occasional/extra = 1 0 0
  (1) pair symmetrix/mace, perpetual
      attributes: full, newton on
      pair build: full/bin
      stencil: full/bin/3d
      bin: standard
Per MPI rank memory allocation (min/avg/max) = 5.921 | 6.221 | 8.438 Mbytes
   Step          Temp          E_pair         E_mol          TotEng         Press     
    880000   300.26434     -1809920.4      0             -1809468.6     -138.73328    
    881000   303.03519     -1809921.7      0             -1809465.8     -131.57638    
    882000   297.90345     -1809931.2      0             -1809483       -146.96897    
    883000   299.49375     -1809920.3      0             -1809469.7     -146.59399    
    884000   302.90061     -1809916        0             -1809460.3     -166.04305    
    885000   300.37139     -1809919.2      0             -1809467.3     -145.30151    
    886000   301.7808      -1809921.4      0             -1809467.4     -166.0884     
    887000   301.14158     -1809925.3      0             -1809472.3     -144.18281    
    888000   296.86083     -1809920.2      0             -1809473.6     -135.76153    
    889000   298.66983     -1809922.8      0             -1809473.4     -140.01845    
    890000   300.26868     -1809920.5      0             -1809468.7     -136.92762    
    891000   300.68103     -1809921        0             -1809468.6     -167.08237    
    892000   296.90332     -1809921.2      0             -1809474.6     -152.09925    
    893000   301.52947     -1809925        0             -1809471.3     -156.16412    
    894000   301.34074     -1809914.4      0             -1809461.1     -170.3943     
    895000   301.06933     -1809922.8      0             -1809469.9     -166.5334     
    896000   303.99517     -1809925.8      0             -1809468.5     -151.89553    
    897000   301.04973     -1809921.7      0             -1809468.8     -143.77405    
    898000   299.60253     -1809919        0             -1809468.3     -174.80559    
    899000   299.48679     -1809922.9      0             -1809472.3     -166.45618    
    900000   298.07202     -1809920.6      0             -1809472.1     -157.00852    
    901000   302.10163     -1809916.6      0             -1809462.1     -152.55136    
    902000   299.28763     -1809921.6      0             -1809471.3     -167.13154    
    903000   303.14236     -1809924.4      0             -1809468.3     -168.38417    
    904000   295.52943     -1809921        0             -1809476.4     -148.64748    
    905000   303.06411     -1809920.2      0             -1809464.2     -162.15576    
    906000   294.01373     -1809927.4      0             -1809485.1     -160.04639    
    907000   298.21842     -1809919.2      0             -1809470.6     -161.94574    
    908000   302.95074     -1809924.7      0             -1809468.9     -132.18097    
    909000   299.08352     -1809918        0             -1809468.1     -147.79945    
    910000   298.95726     -1809923.9      0             -1809474.1     -183.93099    
    911000   300.3907      -1809927.3      0             -1809475.3     -160.69202    
    912000   301.87655     -1809922.9      0             -1809468.8     -141.95282    
    913000   300.07944     -1809924.7      0             -1809473.3     -159.73399    
    914000   298.21726     -1809922.6      0             -1809473.9     -156.06622    
    915000   300.63615     -1809929.2      0             -1809476.9     -154.1008     
    916000   301.63961     -1809921.2      0             -1809467.4     -163.39895    
    917000   299.90415     -1809915.1      0             -1809463.9     -156.09927    
    918000   296.26511     -1809926        0             -1809480.3     -159.69026    
    919000   297.14221     -1809917.7      0             -1809470.7     -160.17084    
    920000   301.94514     -1809920.5      0             -1809466.2     -157.05616    
    921000   303.41827     -1809911.6      0             -1809455.1     -175.60017    
    922000   302.60461     -1809920.2      0             -1809465       -153.97228    
    923000   299.57623     -1809918.5      0             -1809467.8     -158.13208    
    924000   301.86392     -1809914.2      0             -1809460.1     -167.71645    
    925000   300.61859     -1809919.4      0             -1809467.1     -170.45934    
    926000   300.77974     -1809917.1      0             -1809464.6     -147.05442    
    927000   297.98233     -1809923.3      0             -1809475       -123.10623    
    928000   298.73495     -1809918        0             -1809468.6     -173.13356    
    929000   300.58167     -1809915.8      0             -1809463.6     -169.24214    
    930000   299.05245     -1809923.4      0             -1809473.5     -169.75832    
    931000   303.12409     -1809924.7      0             -1809468.7     -167.09631    
    932000   299.25131     -1809922.5      0             -1809472.3     -152.92587    
    933000   299.81431     -1809918        0             -1809467       -169.81672    
    934000   297.99717     -1809919.9      0             -1809471.6     -176.63784    
    935000   299.92165     -1809927.4      0             -1809476.2     -160.64125    
    936000   302.03422     -1809919.8      0             -1809465.4     -158.32857    
    937000   302.45988     -1809925.9      0             -1809470.9     -166.35762    
    938000   297.99658     -1809917.8      0             -1809469.4     -135.73616    
    939000   302.48113     -1809924.9      0             -1809469.9     -146.62786    
    940000   300.31112     -1809917.9      0             -1809466.1     -148.46187    
    941000   302.48462     -1809921.3      0             -1809466.3     -147.34781    
    942000   299.86595     -1809926        0             -1809474.8     -187.4578     
    943000   299.28646     -1809918.2      0             -1809468       -177.36832    
    944000   303.4043      -1809921        0             -1809464.5     -186.56137    
    945000   302.00468     -1809925.4      0             -1809471       -141.93164    
    946000   298.98052     -1809924.8      0             -1809475       -163.11439    
    947000   299.3336      -1809920        0             -1809469.7     -142.4441     
    948000   299.44215     -1809917.7      0             -1809467.2     -166.60948    
    949000   301.51934     -1809918.7      0             -1809465.1     -155.63109    
    950000   302.13683     -1809917.8      0             -1809463.3     -179.38149    
    951000   297.72685     -1809924.3      0             -1809476.4     -174.75709    
    952000   297.97319     -1809917.1      0             -1809468.8     -180.43373    
    953000   298.33732     -1809913.1      0             -1809464.3     -178.53604    
    954000   296.49472     -1809915.9      0             -1809469.8     -173.37153    
    955000   302.91553     -1809920.3      0             -1809464.6     -167.27932    
    956000   301.59033     -1809919.5      0             -1809465.7     -169.72512    
    957000   296.39546     -1809921.3      0             -1809475.4     -152.66983    
    958000   296.28668     -1809918.9      0             -1809473.2     -182.72048    
    959000   302.75709     -1809923.5      0             -1809468       -161.96708    
    960000   298.76542     -1809927.4      0             -1809477.9     -145.14522    
Loop time of 56744.7 on 1024 procs for 80000 steps with 11640 atoms

Performance: 0.122 ns/day, 197.030 hours/ns, 1.410 timesteps/s, 16.410 katom-step/s
100.0% CPU use with 1024 MPI tasks x 1 OpenMP threads

MPI task timing breakdown:
Section |  min time  |  avg time  |  max time  |%varavg| %total
---------------------------------------------------------------
Pair    | 1440.5     | 5337.7     | 21646      |6038.6 |  9.41
Bond    | 0.004873   | 0.0076942  | 0.015398   |   1.7 |  0.00
Neigh   | 0.061607   | 0.1367     | 0.82213    |  38.4 |  0.00
Comm    | 15.43      | 1801.1     | 6305.3     |3409.9 |  3.17
Output  | 0.6126     | 4.3724     | 8.3792     | 111.3 |  0.01
Modify  | 31394      | 49595      | 55244      |2445.1 | 87.40
Other   |            | 6.164      |            |       |  0.01

Nlocal:        11.3672 ave         317 max           0 min
Histogram: 884 31 92 3 2 2 5 1 1 3
Nghost:        98.8408 ave        1501 max           0 min
Histogram: 756 99 128 13 14 5 6 0 0 3
Neighs:              0 ave           0 max           0 min
Histogram: 1024 0 0 0 0 0 0 0 0 0
FullNghs:      1219.06 ave       63407 max           0 min
Histogram: 997 12 2 1 3 4 1 1 0 3

Total # of neighbors = 1248314
Ave neighs/atom = 107.24347
Ave special neighs/atom = 0
Neighbor list builds = 3653
Dangerous builds = 0

write_restart nvt_prod.restart.*
System init for write_restart ...
write_data nvt_prod_final.lammps-data
System init for write_data ...

Total wall time: 15:46:08
