LAMMPS data file via write_data, version 4 Feb 2025, timestep = 960000, units = metal

11640 atoms
3 atom types

0 154.316016 xlo xhi
0 148.49065562978433 ylo yhi
0 151.07316997686289 zlo zhi

Masses

1 12.01099999691024
2 1.007999999740698
3 15.99899999588435

Atoms # full

7899 0 1 0 8.586653844437022 3.72175393172206 114.65005873043395 2 -4 15
7898 0 1 0 7.903895525596131 4.944926197868901 114.70285421798182 2 -4 15
7664 0 1 0 5.783332713481056 6.1844333760319365 114.72057033671432 2 -4 15
7903 0 1 0 8.628968337130585 6.233630335037401 114.77835351942616 2 -4 15
7911 0 1 0 8.632285714832392 11.178897347619312 114.67574052167754 2 -4 15
7915 0 1 0 8.617301915370824 13.634553643660167 114.71734330761488 2 -4 15
7906 0 1 0 7.88852323159492 9.969282324473722 114.80500959898633 2 -4 15
7890 0 1 0 7.864995894072582 0.029394891922793594 114.37972618459672 2 -4 15
7895 0 1 0 8.609501358617795 1.275233416220806 114.46414014418757 2 -4 15
7894 0 1 0 7.890345232365975 2.4860376413858583 114.49406345013784 2 -4 15
7897 0 1 0 6.5099313811491655 4.955283000293172 114.64766850632891 2 -4 15
7919 0 1 0 8.636015521711405 16.142543080177557 114.44392040933867 2 -4 15
7902 0 1 0 7.937397408365775 7.465495509618475 114.84770395618752 2 -4 15
7907 0 1 0 8.638787745511033 8.71402482793749 114.80092776449179 2 -4 15
7655 0 1 0 4.310172850113556 1.2336210810025277 114.52021734160229 2 -4 15
7673 0 1 0 2.1973598107986723 14.88795801551511 114.14060647710794 2 -4 15
7659 0 1 0 4.361540409769985 3.7071692294038887 114.57006527742512 2 -4 15
7439 0 1 0 0.06854087012161703 16.155233288000872 114.17726906066808 2 -4 15
7656 0 1 0 5.734296286571896 1.1983796049793305 114.55657907846923 2 -4 15
7893 0 1 0 6.4457276651956805 2.4482715002495548 114.5514766334531 2 -4 15
7660 0 1 0 5.783326417223907 3.7225462471847033 114.58657788684822 2 -4 15
7901 0 1 0 6.459034766031547 7.475868194029938 114.79013063780268 2 -4 15
7914 0 1 0 7.870055841177672 14.875788353569844 114.55187934934045 2 -4 15
7672 0 1 0 5.790981732129321 11.168272636411036 114.5653338740893 2 -4 15
7905 0 1 0 6.496209850294769 9.89977893975268 114.71337623200965 2 -4 15
7676 0 1 0 5.776426678896514 13.652967814100395 114.54000013153903 2 -4 15
7668 0 1 0 5.779739395237427 8.694345433005955 114.62169747057062 2 -4 15
7913 0 1 0 6.485773518510868 14.89010383758944 114.45222978380063 2 -4 15
7671 0 1 0 4.358045478467144 11.2085822556442 114.47951707137179 2 -4 15
7909 0 1 0 6.494773172603304 12.391644886903114 114.61804562324609 2 -4 15
7678 0 1 0 3.6198076356174353 17.32533579709628 114.11748977729128 2 -4 15
7910 0 1 0 7.9243963179342645 12.408157692162192 114.62612725710078 2 -4 15
7918 0 1 0 7.8708256212899945 17.326687431191054 114.16832723216238 2 -4 15
7667 0 1 0 4.361659499294945 8.745141956128643 114.5293527886405 2 -4 15
7666 0 1 0 3.6843890415304603 9.975603829091375 114.46704197350664 2 -4 15
7675 0 1 0 4.34544428600327 13.622041127647796 114.3973814216678 2 -4 15
7680 0 1 0 5.767219328000599 16.073710038725853 114.31782475735999 2 -4 15
7917 0 1 0 6.452548626660851 17.3157892033505 114.15413577162839 2 -4 15
7658 0 1 0 3.6384202721145074 4.967324373415891 114.51829247304222 2 -4 15
7670 0 1 0 3.6624833961269383 12.417957932760663 114.39394450431502 2 -4 15
7663 0 1 0 4.313844333893498 6.244998180079384 114.60071283028678 2 -4 15
7665 0 1 0 2.2482793588856187 9.95729954769355 114.3878090092171 2 -4 15
7662 0 1 0 3.641733699985008 7.4972925442161955 114.44809918520716 2 -4 15
7436 0 1 0 1.4709053713269067 13.605859238485364 114.24114177831275 2 -4 15
7674 0 1 0 3.6217521625316005 14.852040184705192 114.20183756000347 2 -4 15
7432 0 1 0 1.5137901731662473 11.176612112657697 114.30061529931342 2 -4 15
7669 0 1 0 2.216957039652154 12.354055082096133 114.30529841940862 2 -4 15
7428 0 1 0 1.46098089915688 8.733895778872009 114.35745104692717 2 -4 15
7440 0 1 0 1.4945634584011591 16.14183719885024 114.0973912724931 2 -4 15
7677 0 1 0 2.206399656369218 17.367588165593087 114.09300124829616 2 -4 15
7661 0 1 0 2.1681459447326414 7.515661176739498 114.39585862296376 2 -4 15
7679 0 1 0 4.34911001042229 16.065989304659574 114.14425126326209 2 -4 15
7424 0 1 0 1.4884134394567652 6.25371586562595 114.41839088257247 2 -4 15
7654 0 1 0 3.621291425691983 2.5194155984502085 114.53830715827316 2 -4 15
7683 0 1 0 8.65055199496571 18.558204479944205 114.17574265884326 2 -5 15
7420 0 1 0 1.493774609629564 3.776512197519925 114.3848630326201 2 -4 15
7657 0 1 0 2.2374259566505246 4.996523600633898 114.3516582849631 2 -4 15
7431 0 1 0 0.05965122268668667 11.190121016983563 114.27994345309897 2 -4 15
7435 0 1 0 0.056058939467665145 13.629563399029989 114.2466339658616 2 -4 15
7423 0 1 0 0.08561013846760182 6.252935633970375 114.3671379666728 2 -4 15
7653 0 1 0 2.194680136754174 2.523208288808704 114.42248619621246 2 -4 15
7415 0 1 0 0.12774434045870423 1.2127852901195815 114.18424323921447 2 -4 15
7416 0 1 0 1.537645019485293 1.2686915539372323 114.25555368380478 2 -4 15
7419 0 1 0 0.06767054249048393 3.7421644593412804 114.25632381028701 2 -4 15
7427 0 1 0 0.060519779623794616 8.69618214157997 114.38925635844487 2 -4 15
7444 0 1 0 5.768851939602827 18.56103810021927 114.07325476006183 2 -5 15
7443 0 1 0 4.367109627317383 18.560363732150023 114.11445949237292 2 -5 15
7649 0 1 0 2.212832948895636 0.03520820296787974 114.17239481161764 2 -4 15
7231 0 1 0 0.027030236090979542 35.886350435773736 113.64905141699934 2 -5 15
7702 0 1 0 7.898668212510536 32.233532747258316 113.68233532145095 2 -5 15
7707 0 1 0 8.646846362509248 33.45129435327164 113.72757995946492 2 -5 15
7681 0 1 0 6.4755075897922545 19.786555921900117 113.9930818345069 2 -5 15
7682 0 1 0 7.882267699226916 19.743768650681506 114.13720062050498 2 -5 15
7448 0 1 0 5.818759836742055 21.0124811713574 113.962923419073 2 -5 15
7232 0 1 0 1.4346055726005482 35.8759960791271 113.71405804565342 2 -5 15
7463 0 1 0 4.334011392812769 30.95911053187362 113.63890628236385 2 -5 15
7212 0 1 0 1.513499749885133 23.486038554005308 113.90052172802045 2 -5 15
7442 0 1 0 3.665735247573961 19.823845008486327 114.05001381773445 2 -5 15
7441 0 1 0 2.267819532562844 19.853335564556225 114.031271529738 2 -5 15
7447 0 1 0 4.374114679103124 21.05761219450729 114.08513987339965 2 -5 15
7208 0 1 0 1.5018467308185037 21.0491968735705 113.98253379255237 2 -5 15
7445 0 1 0 2.2349313341455055 22.279771664504608 113.86090963145227 2 -5 15
7220 0 1 0 1.485268522173405 28.43580950938069 113.477206539116 2 -5 15
7687 0 1 0 8.616958384311665 21.029344586969653 114.15793643124896 2 -5 15
7446 0 1 0 3.6607946286329858 22.303371481177493 114.00139458468547 2 -5 15
7451 0 1 0 4.3657625592802 23.56727577440786 113.8746433976615 2 -5 15
7216 0 1 0 1.4208967101528174 25.96583601650777 113.63168479123388 2 -5 15
7224 0 1 0 1.5245676599423241 30.895602365148232 113.5553409178722 2 -5 15
7449 0 1 0 2.204369773795991 24.739384016165847 113.7537994443164 2 -5 15
7685 0 1 0 6.467004883952296 22.30359822878213 113.96170831119478 2 -5 15
7686 0 1 0 7.902227996192179 22.31012098383897 114.06896497830903 2 -5 15
7691 0 1 0 8.636152319536832 23.563797639422642 114.17042580446902 2 -5 15
7228 0 1 0 1.4297270527087917 33.38082882611488 113.60405225407871 2 -5 15
7465 0 1 0 2.1364167232572666 34.62639461213604 113.67139940139165 2 -5 15
7452 0 1 0 5.7928811122532995 23.547505544325258 113.9515552154165 2 -5 15
7450 0 1 0 3.626522043731555 24.802841071369603 113.81684460054086 2 -5 15
7698 0 1 0 7.934042636721987 29.768243498793414 113.66741946155042 2 -5 15
7461 0 1 0 2.215917694242817 32.14077513920426 113.66616607685289 2 -5 15
7453 0 1 0 2.179777024048425 27.214971145151516 113.6099740009594 2 -5 15
7690 0 1 0 7.918695652296897 24.76930162111601 114.06722211730128 2 -5 15
7689 0 1 0 6.4680709966573 24.794176679951846 114.00527511276519 2 -5 15
7699 0 1 0 8.606701245851761 28.49953970691905 113.82123346196602 2 -5 15
7455 0 1 0 4.366631915287567 26.036351271370137 113.76231808914513 2 -5 15
7204 0 1 0 1.5254827255720027 18.617261091198138 114.06740442772804 2 -5 15
7457 0 1 0 2.225977777670606 29.639934542000578 113.49686055268026 2 -5 15
7695 0 1 0 8.60914767033614 25.995280589918384 114.01876852115792 2 -5 15
7459 0 1 0 4.359760406556324 28.502690410936143 113.60280123223382 2 -5 15
7454 0 1 0 3.646795844861167 27.267002199389513 113.66232932895456 2 -5 15
7458 0 1 0 3.6361869956751915 29.69830077807975 113.57118936054336 2 -5 15
7207 0 1 0 0.02927681599029836 21.025517316923743 113.84191507537129 2 -5 15
7456 0 1 0 5.800211381789597 26.03559644708773 113.83701703476888 2 -5 15
7693 0 1 0 6.527101558085189 27.29384505472747 113.80189997396552 2 -5 15
7694 0 1 0 7.912732840691099 27.268850313620153 113.86322577480696 2 -5 15
7471 0 1 0 4.300847845690017 35.91467540104196 113.79671673422719 2 -5 15
7466 0 1 0 3.5534694976573866 34.70055964102277 113.77624399138173 2 -5 15
7460 0 1 0 5.810843149604382 28.553095296190666 113.79075162266649 2 -5 15
7472 0 1 0 5.742926671156826 35.849152965989276 113.7945862466002 2 -5 15
7467 0 1 0 4.351317208319033 33.393703405066695 113.73280498255015 2 -5 15
7462 0 1 0 3.640481313214699 32.195485172864174 113.78537456999447 2 -5 15
7697 0 1 0 6.5075334338254525 29.770678689223608 113.65845051467149 2 -5 15
7211 0 1 0 0.08045299294715719 23.522078430481447 113.79881502786137 2 -5 15
7219 0 1 0 0.014835818549945113 28.43986649484606 113.4054651231337 2 -5 15
7223 0 1 0 0.03443886595277537 30.922261314525418 113.47110172620734 2 -5 15
7227 0 1 0 0.03677042729109159 33.41108116730116 113.51159780578679 2 -5 15
7215 0 1 0 0.01195425780242731 25.983761636249326 113.59320190970969 2 -5 15
7203 0 1 0 0.12122494324960294 18.61522474129899 114.08679071812998 2 -5 15
7464 0 1 0 5.8040355038933455 30.993929881095855 113.64647840838583 2 -5 15
7711 0 1 0 8.637111950589938 35.91238093257187 113.71557376227625 2 -5 15
7706 0 1 0 7.884373123570891 34.6156408398733 113.70117755761116 2 -5 15
7703 0 1 0 8.657379015649537 31.01634939243295 113.6202612087892 2 -5 15
7468 0 1 0 5.783605791731223 33.40922744763763 113.64128528895907 2 -5 15
7705 0 1 0 6.465155295668879 34.63842383878218 113.77863352848767 2 -5 15
7701 0 1 0 6.473795784270386 32.180462582692165 113.6565328791812 2 -5 15
7256 0 1 0 1.411454906166056 50.735269395357726 114.27837483028789 2 -5 15
7248 0 1 0 1.4481476334472014 45.789099572074306 114.12392997094308 2 -5 15
7485 0 1 0 2.0801272657476786 47.04675088772161 114.11107510264856 2 -5 15
7252 0 1 0 1.4056943767925765 48.26013869148615 114.10685808126019 2 -5 15
7489 0 1 0 2.1325277110928282 49.50902518162283 114.26631535058708 2 -5 15
7498 0 1 0 3.5797739780270112 54.42512280162773 114.38772866970446 2 -5 15
7497 0 1 0 2.106932574777472 54.437909243144986 114.35229744332014 2 -5 15
7486 0 1 0 3.481961469243165 47.07232352465255 114.25028482662789 2 -5 15
7491 0 1 0 4.244637022395525 48.29514095710776 114.43499921869139 2 -5 15
7490 0 1 0 3.5205086905989593 49.50388521902202 114.41113347311185 2 -5 15
7260 0 1 0 1.4219867120162297 53.20733891026853 114.18129484703701 2 -5 15
7493 0 1 0 2.1980320716249295 51.97873667890333 114.30061176027117 2 -5 15
7496 0 1 0 5.683159381259474 50.704613499139576 114.66011925911629 2 -5 15
7495 0 1 0 4.294080947897478 50.7393153362843 114.52062171986842 2 -5 15
7240 0 1 0 1.4112373580608089 40.80953443172555 113.84859747703112 2 -5 15
7494 0 1 0 3.6081532268093213 51.962838742813275 114.37695614829447 2 -5 15
7499 0 1 0 4.311990852891316 53.198044200367235 114.40188860577754 2 -5 15
7477 0 1 0 2.119715600168947 42.05528532715795 113.8928483010199 2 -5 15
7244 0 1 0 1.4214309574490909 43.2826318441817 114.00145083139724 2 -5 15
7500 0 1 0 5.7190563328481305 53.18968090978896 114.49773855301767 2 -5 15
7481 0 1 0 2.1625318256183674 44.56143230724524 114.07284107789192 2 -5 15
7729 0 1 0 6.361626224473091 49.446386669681054 114.70974153230739 2 -5 15
7492 0 1 0 5.651358656918689 48.24506349575949 114.65622955652286 2 -5 15
7733 0 1 0 6.402039745266988 51.92757180001196 114.52594574121386 2 -5 15
7487 0 1 0 4.270360363831203 45.82841062493298 114.29816651982327 2 -5 15
7737 0 1 0 6.453634763907896 54.430242739904095 114.36030515654892 2 -5 15
7488 0 1 0 5.697227235009688 45.815625450356436 114.39431035001283 2 -5 15
7726 0 1 0 7.7965805913690955 47.050992644954725 114.52582264179433 2 -5 15
7735 0 1 0 8.52582488639806 50.733683909503576 114.59544587175807 2 -5 15
7731 0 1 0 8.522925141066304 48.26894218629547 114.5632273918102 2 -5 15
7734 0 1 0 7.795015396796383 51.97641147301766 114.5229670177093 2 -5 15
7479 0 1 0 4.27839294311665 40.82521752567786 114.05477718530429 2 -5 15
7730 0 1 0 7.795971593093214 49.49727682214057 114.67410511129775 2 -5 15
7478 0 1 0 3.5733436525976665 42.091175081368974 114.0526682353507 2 -5 15
7725 0 1 0 6.371221377688493 47.03588671682721 114.63110228629921 2 -5 15
7483 0 1 0 4.25491564041814 43.31315958356796 114.18314980798306 2 -5 15
7739 0 1 0 8.536246421070434 53.210525682189626 114.42523683405456 2 -5 15
7482 0 1 0 3.5792275887954164 44.56673604824483 114.24340992699726 2 -5 15
7714 0 1 0 7.901780794655264 39.658589092032024 113.88449291774039 2 -5 15
7722 0 1 0 7.85008187958796 44.588050114317085 114.23842992332266 2 -5 15
7235 0 1 0 0.0160138584597415 38.36586060656117 113.74977025678774 2 -5 15
7470 0 1 0 3.588032884845283 37.14898456709217 113.92586902000092 2 -5 15
7474 0 1 0 3.5831769837033733 39.641420070190186 113.9968935607237 2 -5 15
7738 0 1 0 7.84098498812533 54.469615847818126 114.30783687093574 2 -5 15
7727 0 1 0 8.54651531397117 45.82948348971794 114.32709371579035 2 -5 15
7473 0 1 0 2.1537950938700905 39.61120037627618 113.86273671330768 2 -5 15
7484 0 1 0 5.751166887647408 43.326721229975405 114.13085519952028 2 -5 15
7236 0 1 0 1.4022135836889005 38.38045847974495 113.86977258698103 2 -5 15
7721 0 1 0 6.427549806349263 44.57639784814545 114.2297936927183 2 -5 15
7717 0 1 0 6.4924830107718075 42.094287819768894 114.01642561848145 2 -5 15
7713 0 1 0 6.466215126330392 39.62140480089317 113.9550985320265 2 -5 15
7718 0 1 0 7.935914650574445 42.13961824638639 114.08657289958158 2 -5 15
7723 0 1 0 8.601666989537591 43.35559402758122 114.16421380365846 2 -5 15
7239 0 1 0 0.05534764767568845 40.81501966274694 113.83057088068053 2 -5 15
7475 0 1 0 4.342998234464056 38.407291261154995 113.89015870922589 2 -5 15
7480 0 1 0 5.740559216070585 40.834716137706515 114.0461952962517 2 -5 15
7719 0 1 0 8.617838280560385 40.934929398458046 113.91262691479022 2 -5 15
7709 0 1 0 6.4593203658523946 37.1405950271274 113.80652481492439 2 -5 15
7476 0 1 0 5.77343320852177 38.40622563744754 113.87306902837726 2 -5 15
7715 0 1 0 8.628262572445015 38.4280267304682 113.80390245878311 2 -5 15
7710 0 1 0 7.855855578074076 37.14823676364411 113.66477426972207 2 -5 15
7251 0 1 0 0.01931312512604677 48.28771052877857 114.12983086762927 2 -5 15
7264 0 1 0 1.4125022610499234 55.67643843018456 114.41463736119125 2 -5 15
7469 0 1 0 2.136811641130698 37.14572883568312 113.81842665023738 2 -5 15
7759 0 1 0 8.559844187828261 65.60935293325902 114.20389200979538 2 -5 15
7520 0 1 0 5.749427289275872 65.62784898847814 114.16533324990364 2 -5 15
7754 0 1 0 7.888763249264841 64.34144191477635 114.15993567788856 2 -5 15
7746 0 1 0 7.844892284649758 59.40129083001292 114.20049615330322 2 -5 15
7757 0 1 0 6.4992790511737235 66.84346225513787 114.24353323825356 2 -5 15
7758 0 1 0 7.856864624425779 66.84724346906542 114.13565709250703 2 -5 15
7524 0 1 0 5.76397424223445 68.03959582318645 114.2069143996052 2 -5 15
7766 0 1 0 7.880465462727206 71.7778971134581 114.3196829722757 2 -5 15
7761 0 1 0 6.492150786392389 69.28330094061192 114.0636798378404 2 -5 15
7527 0 1 0 4.3494061219551865 70.50023209935863 114.06305210161416 2 -5 15
7765 0 1 0 6.441128319329205 71.72970409251528 114.15506235887486 2 -5 15
7528 0 1 0 5.757582819093433 70.50941024828383 114.04650205791377 2 -5 15
7522 0 1 0 3.6486267610750525 69.27078877787089 114.21829429982782 2 -5 15
7523 0 1 0 4.358253320991619 68.04410284617144 114.2895101837814 2 -5 15
7287 0 1 0 0.00913136511334376 70.53764443300881 114.32090199489784 2 -5 15
7502 0 1 0 3.5725236544123136 56.94910837219786 114.417691851267 2 -5 15
7767 0 1 0 8.61447856065897 70.52223518354884 114.28162234975403 2 -5 15
7521 0 1 0 2.1820354833089293 69.27533663649913 114.27029584247137 2 -5 15
7526 0 1 0 3.6137197634894997 71.70678767563932 114.12102764254887 2 -5 15
7755 0 1 0 8.562832554101819 63.07355296976005 114.25161249283619 2 -5 15
7762 0 1 0 7.893915570087541 69.26340243825643 114.10804646307356 2 -5 15
7268 0 1 0 1.449882927865498 58.12559353489001 114.30101320455772 2 -5 15
7272 0 1 0 1.3981532617627657 60.58963414628711 114.17858627109108 2 -5 15
7763 0 1 0 8.609346442965025 68.043184269213 114.11633657789177 2 -5 15
7276 0 1 0 1.4334762644302892 63.09860936466128 114.24612777802407 2 -5 15
7531 0 1 0 4.315807267666366 72.95245571672869 114.0452307738487 2 -5 15
7288 0 1 0 1.4674247176133466 70.48787202717888 114.28012445450784 2 -5 15
7501 0 1 0 2.1412160391583335 56.922047331080506 114.41036696820628 2 -5 15
7532 0 1 0 5.713060425103303 72.9399840485565 114.27843670639241 2 -5 15
7505 0 1 0 2.135649910320163 59.378403873293834 114.18595429486106 2 -5 15
7751 0 1 0 8.539394013767753 60.60514904613685 114.26089580094423 2 -5 15
7525 0 1 0 2.1824534336989925 71.69971617706322 114.19046500288064 2 -5 15
7292 0 1 0 1.541612882289009 72.93731110755411 114.17323004178058 2 -5 15
7771 0 1 0 8.610820864082505 72.99523434965218 114.39289572079771 2 -5 15
7770 0 1 0 7.878026053825667 74.2304911841977 114.34166313057248 2 -5 15
7753 0 1 0 6.448612993065734 64.35924888709224 114.19458638841154 2 -5 15
7747 0 1 0 8.595919355677735 58.13124855142576 114.21451488780353 2 -5 15
7741 0 1 0 6.424646632664063 56.94018006494465 114.26516643637744 2 -5 15
7516 0 1 0 5.717235919055446 63.14737229360081 114.07422067652118 2 -5 15
7515 0 1 0 4.290037770063925 63.09865749713303 114.08382071740968 2 -5 15
7291 0 1 0 0.0700577422916227 73.00856727038993 114.25904596067801 2 -5 15
7518 0 1 0 3.60284563335907 66.84464141883434 114.3581091531712 2 -5 15
7749 0 1 0 6.389720435589949 61.86931258033149 114.12140401878126 2 -5 15
7519 0 1 0 4.354938601318644 65.58602165020636 114.24252438633172 2 -5 15
7750 0 1 0 7.81760119069636 61.82739965527986 114.1863167238763 2 -5 15
7510 0 1 0 3.575989448775419 61.8696193948875 114.10919889233323 2 -5 15
7769 0 1 0 6.442054592759503 74.22904291375934 114.30363603966647 2 -5 15
7509 0 1 0 2.1384092483167465 61.834829462543496 114.2066575978164 2 -5 15
7742 0 1 0 7.8701616607967075 56.93134543462835 114.20319144893665 2 -5 15
7267 0 1 0 0.014984928655997674 58.126486530564456 114.28129848217394 2 -5 15
7517 0 1 0 2.141015405188748 66.77800150607203 114.35767439718487 2 -5 15
7513 0 1 0 2.147466573039131 64.3255442171584 114.27268836372491 2 -5 15
7514 0 1 0 3.570476279524706 64.35519836445843 114.17803024696991 2 -5 15
7745 0 1 0 6.416493724358258 59.37949545489191 114.1401491770587 2 -5 15
7284 0 1 0 1.4448605384757378 68.05311539561991 114.3400779972699 2 -5 15
7511 0 1 0 4.277177708211037 60.61039899166957 114.24637103365383 2 -5 15
7506 0 1 0 3.5665457103551987 59.40891649230522 114.25219174477621 2 -5 15
7508 0 1 0 5.691519694821142 58.13609279386557 114.21264664905551 2 -5 15
7280 0 1 0 1.4195632167667338 65.57448430329589 114.28524921036033 2 -5 15
7512 0 1 0 5.7281190271175495 60.6267167887421 114.17688006305775 2 -5 15
7507 0 1 0 4.257891824541795 58.16288606296471 114.31792778095061 2 -5 15
7529 0 1 0 2.2377191031462202 74.1825880953793 114.12640897454804 2 -5 15
7530 0 1 0 3.608133899252676 74.2056571088816 114.05474120396691 2 -5 15
7743 0 1 0 8.551476815539425 55.691300457298354 114.27135246661378 2 -5 15
7283 0 1 0 0.03379758575024994 68.04952195539539 114.31141167226934 2 -5 15
7275 0 1 0 0.0028541205879264453 63.11532977609864 114.17324204787924 2 -5 15
7503 0 1 0 4.276134946767849 55.68839579403067 114.42165968231656 2 -5 15
7504 0 1 0 5.712915461316569 55.69301212327617 114.33746661975044 2 -5 15
7556 0 1 0 5.770380796701408 87.82561917379947 113.10275366920409 2 -5 15
7799 0 1 0 8.579827407429264 90.30043208775663 113.28550345880873 2 -5 15
7797 0 1 0 6.473589537766507 91.57708533145065 113.18588905751244 2 -5 15
7553 0 1 0 2.2701280109188615 89.08031038768152 113.20116126813997 2 -5 15
7555 0 1 0 4.3633887117665715 87.78771686884663 113.12565444260147 2 -5 15
7793 0 1 0 6.46153831945998 89.03265396291863 113.11010091971167 2 -5 15
7320 0 1 0 1.5163854614055963 90.28357760299863 113.18799265568764 2 -5 15
7554 0 1 0 3.6734913330743475 89.04511383701742 113.13233345618652 2 -5 15
7789 0 1 0 6.438256307641644 86.58526759488946 113.21268160055132 2 -5 15
7794 0 1 0 7.8726251540498815 89.0738501794127 113.2278938260672 2 -5 15
7564 0 1 0 5.7645612976581075 92.80170375901665 113.28159754142185 2 -5 15
7563 0 1 0 4.329916550981653 92.79027076218546 113.17428858290656 2 -5 15
7557 0 1 0 2.222920550412763 91.58715328772877 113.21521492867717 2 -5 15
7560 0 1 0 5.7863916091553484 90.27361086778545 113.14376927158987 2 -5 15
7558 0 1 0 3.660597688754916 91.54117774909254 113.21778055528537 2 -5 15
7559 0 1 0 4.367409445829616 90.29581605506058 113.13938341980372 2 -5 15
7546 0 1 0 3.656351328732618 84.15266384864843 113.69242628472377 2 -5 15
7545 0 1 0 2.2501481271838304 84.11999677922526 113.6881105752738 2 -5 15
7312 0 1 0 1.539323852580933 85.36080830560992 113.67565558634173 2 -5 15
7303 0 1 0 0.07619790004654556 80.46317432268256 113.75082950107661 2 -5 15
7540 0 1 0 5.750103045628691 77.90365421304507 114.07661470069829 2 -5 15
7774 0 1 0 7.911256746522786 76.66951766298442 114.22154499192577 2 -5 15
7775 0 1 0 8.594765562158765 75.4434727860254 114.23506003332672 2 -5 15
7535 0 1 0 4.361473761094188 75.4791243857605 114.11977543487846 2 -5 15
7533 0 1 0 2.2121672673086716 76.68482869849119 114.05939646506944 2 -5 15
7534 0 1 0 3.6214395304203646 76.6512590954799 114.0348898172584 2 -5 15
7536 0 1 0 5.734060482741302 75.5046818367565 114.30147409590761 2 -5 15
7773 0 1 0 6.486571743264213 76.74247097637232 114.25296560725832 2 -5 15
7539 0 1 0 4.33250497406167 77.88553327430895 114.05309993846923 2 -5 15
7782 0 1 0 7.935554742145382 81.6953486073852 113.90621637243548 2 -5 15
7538 0 1 0 3.644019719337246 79.14042595961641 113.99319828878637 2 -5 15
7296 0 1 0 1.5150255293802835 75.44129354969749 114.07635826514878 2 -5 15
7300 0 1 0 1.522003772405578 77.95113603080942 114.01989653125717 2 -5 15
7779 0 1 0 8.581547975689794 77.9680524476951 114.13784012562134 2 -5 15
7537 0 1 0 2.216823648023696 79.18243143240302 113.92001763570308 2 -5 15
7778 0 1 0 7.874977640417861 79.22504571845533 114.02145035456233 2 -5 15
7777 0 1 0 6.45919485204565 79.14538343331056 114.03502528152812 2 -5 15
7544 0 1 0 5.729192428780473 80.40982612258259 113.9989050874679 2 -5 15
7543 0 1 0 4.314432133602569 80.38082391077799 113.9502826889455 2 -5 15
7783 0 1 0 8.636669452691256 80.44259685155731 113.96042536863163 2 -5 15
7304 0 1 0 1.5416230708457774 80.41155199601972 113.82943936614896 2 -5 15
7787 0 1 0 8.644968491162363 82.90124661052621 113.74523423086261 2 -5 15
7541 0 1 0 2.2317982388931137 81.69314652883207 113.82412640663158 2 -5 15
7542 0 1 0 3.657474675586279 81.64349880740131 113.90126953274043 2 -5 15
7781 0 1 0 6.484493654005724 81.67050608632317 113.91743962597364 2 -5 15
7548 0 1 0 5.795383794763031 82.91196410568567 113.80792133962777 2 -5 15
7547 0 1 0 4.3747042085934496 82.88059196314069 113.86478752297145 2 -5 15
7308 0 1 0 1.5515927320557508 82.90166033868334 113.76407081528656 2 -5 15
7307 0 1 0 0.10929141946289414 82.96311861159329 113.72300836655945 2 -5 15
7295 0 1 0 0.12505908020886328 75.48460025834768 114.1665779639851 2 -5 15
7786 0 1 0 7.9333425895218515 84.09640125080543 113.58095891093237 2 -5 15
7785 0 1 0 6.487467389657648 84.17386475313121 113.64045722661889 2 -5 15
7299 0 1 0 0.09851980012430363 77.94620832503279 114.00761404577084 2 -5 15
7311 0 1 0 0.11259932974736436 85.37452074165805 113.71784768513074 2 -5 15
7315 0 1 0 0.07283951850884825 87.83813911050608 113.39267152349677 2 -5 15
7791 0 1 0 8.63121944705629 85.35554154350093 113.42002395577961 2 -5 15
7549 0 1 0 2.182928376733068 86.57767718594286 113.40878722969495 2 -5 15
7803 0 1 0 8.652864831656638 92.72062534261603 113.50471324275277 2 -5 15
7319 0 1 0 0.10697742211647313 90.27350089390646 113.3660996533553 2 -5 15
7551 0 1 0 4.3236252735520555 85.32294862763098 113.40691274355919 2 -5 15
7316 0 1 0 1.5143056826494015 87.82309736833159 113.33223686854741 2 -5 15
7790 0 1 0 7.873905207923148 86.61228405258784 113.35974812393157 2 -5 15
7798 0 1 0 7.865192212652631 91.5417027796638 113.30506448643203 2 -5 15
7550 0 1 0 3.613923365923908 86.55919918441329 113.31829019284405 2 -5 15
7795 0 1 0 8.596455916762151 87.83441958719268 113.33335457996417 2 -5 15
7552 0 1 0 5.72899339643381 85.34185643356932 113.35246542469864 2 -5 15
7562 0 1 0 3.6534854485494805 94.04808268648544 113.241781819196 2 -5 15
7561 0 1 0 2.255879681907091 94.06093571636879 113.26943581729645 2 -5 15
7344 0 1 0 1.4584734556397694 105.18188577030254 113.73521459699332 2 -5 15
7348 0 1 0 1.4479780986676694 107.59563985578362 113.69013955236726 2 -5 15
7577 0 1 0 2.1366739850509338 103.94906600780662 113.76365111402666 2 -5 15
7347 0 1 0 0.06587345687520722 107.62992750111549 113.71831424046233 2 -5 15
7582 0 1 0 3.585485056523893 106.44012022555071 113.73141106232417 2 -5 15
7352 0 1 0 1.44833092076021 110.13816115142173 113.84286614021786 2 -5 15
7585 0 1 0 2.1172669245913904 108.89916600231152 113.7368895390007 2 -5 15
7581 0 1 0 2.1818706089695414 106.40254868057258 113.72658679920836 2 -5 15
7576 0 1 0 5.760971105752897 100.23228699378322 113.62512127492768 2 -5 15
7583 0 1 0 4.303108078401289 105.19976809622237 113.77127526102097 2 -5 15
7809 0 1 0 6.463801107991172 99.01201146619648 113.528955240138 2 -5 15
7823 0 1 0 8.603580587025364 105.20533568473306 113.89529981961564 2 -5 15
7591 0 1 0 4.298268202105004 110.1407883487894 113.78971600876865 2 -5 15
7827 0 1 0 8.606599241618829 107.71119567757832 113.91466554370815 2 -5 15
7822 0 1 0 7.883991964292653 106.46093646386953 113.82741907513764 2 -5 15
7584 0 1 0 5.770154710901636 105.21776272010759 113.82105604655614 2 -5 15
7587 0 1 0 4.268165757857492 107.66960524675456 113.70759153325886 2 -5 15
7826 0 1 0 7.844244790772613 108.93507110876186 113.97030859070196 2 -5 15
7340 0 1 0 1.407455945825348 102.69161728218897 113.7873599125038 2 -5 15
7579 0 1 0 4.330798145970927 102.69638381251174 113.7499083012525 2 -5 15
7821 0 1 0 6.487874373922778 106.46102379568539 113.83555236278153 2 -5 15
7825 0 1 0 6.435340800626318 108.94659832483212 113.83412789377383 2 -5 15
7588 0 1 0 5.726302872231678 107.71108941268176 113.75051125976964 2 -5 15
7817 0 1 0 6.4656332974710695 103.97090843941142 113.81953783576539 2 -5 15
7586 0 1 0 3.577398342037959 108.8896552774806 113.79129975102475 2 -5 15
7573 0 1 0 2.150083871027189 101.41094984788046 113.69555106025857 2 -5 15
7578 0 1 0 3.6487355626540157 103.93913844465273 113.75554406471774 2 -5 15
7831 0 1 0 8.619841558181509 110.15891898805151 114.13461895468576 2 -5 15
7592 0 1 0 5.748612088545281 110.17070007466559 113.89514523109963 2 -5 15
7574 0 1 0 3.6039218110053377 101.4845287080822 113.71592124057311 2 -5 15
7802 0 1 0 7.972895905104559 93.9505495938908 113.50429552841501 2 -5 15
7580 0 1 0 5.733544305357262 102.72793394809791 113.74336152258671 2 -5 15
7575 0 1 0 4.357145379301436 100.25905273492762 113.64403139024692 2 -5 15
7331 0 1 0 0.06842415925212036 97.70437791667821 113.76485879944036 2 -5 15
7339 0 1 0 0.004329485709207063 102.72081781148593 113.81883462878 2 -5 15
7813 0 1 0 6.460609517088848 101.4651736320476 113.67356441077415 2 -5 15
7814 0 1 0 7.853988615138604 101.45756426771857 113.55668870029582 2 -5 15
7818 0 1 0 7.854581269524242 103.97374512309727 113.81928798543287 2 -5 15
7819 0 1 0 8.569870190184613 102.68872197676652 113.70685105027391 2 -5 15
7567 0 1 0 4.39380254034718 95.27831524666402 113.46767127300436 2 -5 15
7332 0 1 0 1.4669770138216485 97.73585197110268 113.61453685378287 2 -5 15
7569 0 1 0 2.210645698267598 99.03152787818676 113.5776647196353 2 -5 15
7810 0 1 0 7.926990656317003 99.04937545219927 113.62858575069177 2 -5 15
7570 0 1 0 3.6232066371492166 99.04261969031495 113.60069507092022 2 -5 15
7336 0 1 0 1.4541233347367315 100.15002468764703 113.64261941558678 2 -5 15
7815 0 1 0 8.641467998529588 100.24815140196718 113.63369886843302 2 -5 15
7343 0 1 0 0.03210220787742618 105.18874600183722 113.84705727512942 2 -5 15
7565 0 1 0 2.2288361222509536 96.47075881965665 113.46088492652358 2 -5 15
7571 0 1 0 4.324738779944559 97.75824414732693 113.50121915283887 2 -5 15
7572 0 1 0 5.73489925065046 97.77791407861443 113.52389654870883 2 -5 15
7811 0 1 0 8.643145130333364 97.74722215046243 113.69328857143665 2 -5 15
7328 0 1 0 1.5316285871725392 95.2481243821134 113.41910042119893 2 -5 15
7806 0 1 0 7.934393257470058 96.474394220687 113.58917956259424 2 -5 15
7805 0 1 0 6.521583410598669 96.55206999377799 113.51663493862536 2 -5 15
7807 0 1 0 8.679551052458692 95.24025367671912 113.57422490531975 2 -5 15
7327 0 1 0 0.15298660832770644 95.23685759749415 113.5350204248356 2 -5 15
7351 0 1 0 0.037661731855337166 110.04134974587896 113.85932772968202 2 -5 15
7566 0 1 0 3.6286297734455157 96.5116018912607 113.46725390690041 2 -5 15
7801 0 1 0 6.516338404928813 94.01904354230676 113.51324936632363 2 -5 15
7568 0 1 0 5.817262774353968 95.31142361830324 113.46687844139821 2 -5 15
7590 0 1 0 3.557465627623038 111.32623755854421 113.91177241980913 2 -5 15
7324 0 1 0 1.5021511989063612 92.81016238131299 113.30878568326769 2 -5 15
7323 0 1 0 0.08197625339606632 92.83515783489047 113.34168084889282 2 -5 15
7838 0 1 0 7.871880183935135 116.32115763848532 114.35905797122896 2 -5 15
7356 0 1 0 1.46408468091814 112.57323376497149 113.88314097959989 2 -5 15
7593 0 1 0 2.1480168634326855 113.87305319639121 113.8309477874915 2 -5 15