LAMMPS (4 Feb 2025)
OMP_NUM_THREADS environment is not set. Defaulting to 1 thread. (src/comm.cpp:99)
  using 1 OpenMP thread(s) per MPI task
# LAMMPS script for running NVT simulation

units       metal                   # Energies in eV, distances in A
dimension   3
boundary    p p p
atom_style  full

read_data   ../start.lammps-data
Reading data file ...
  orthogonal box = (0 0 0) to (154.008 148.19427 151.07317)
  10 by 8 by 8 MPI processor grid
  reading atoms ...
  14640 atoms
  scanning bonds ...
  2 = max bonds/atom
  reading velocities ...
  14640 velocities
  scanning angles ...
  1 = max angles/atom
  orthogonal box = (0 0 0) to (154.008 148.19427 151.07317)
  10 by 8 by 8 MPI processor grid
  reading bonds ...
  4000 bonds
  reading angles ...
  2000 angles
Finding 1-2 1-3 1-4 neighbors ...
  special bond factors lj:    0        0        0       
  special bond factors coul:  0        0        0       
     2 = max # of 1-2 neighbors
     1 = max # of 1-3 neighbors
     1 = max # of 1-4 neighbors
     2 = max # of special neighbors
  special bonds CPU = 6.311 seconds
  read_data CPU = 6.529 seconds

bond_style   zero                    # SPC/E rigid model
bond_coeff   1 1.0                   # SPC/E rigid model
angle_style  zero                    # SPC/E rigid model
angle_coeff  1 109.47                # SPC/E rigid model
pair_style   lj/cut/coul/long 9.0    # Cutoff radius of 0.9 nm = 9 A
kspace_style pppm 1.0e-5             # Particle-particle particle-mesh Ewald summation
pair_coeff   1 1 0.0      1.0        # Ignore C-C
pair_coeff   1 2 0.0      1.0        # Ignore C-H
pair_coeff   1 3 0.004551 3.367      # LJ for C-O (0.4391 kJ/mol = 0.004551 eV)
pair_coeff   2 2 0.0      1.0        # SPC/E H-H
pair_coeff   2 3 0.0      1.0        # SPC/E H-O
pair_coeff   3 3 0.006735 3.166      # SPC/E O-O (0.1553 kcal/mol = 0.006735 eV)

set type 2 charge 0.4238            # SPC/E H
Setting atom values ...
  4000 settings made for charge
set type 3 charge -0.8476           # SPC/E O
Setting atom values ...
  2000 settings made for charge

variable t equal step

group graphene type 1
8640 atoms in group graphene
group H2O type 2 3
6000 atoms in group H2O

######### Energy minimization #########

thermo 10
fix graphene_fix graphene setforce 0.0 0.0 0.0
fix rigid_bonds H2O shake 0.0001 10 10000 b 1 a 1
Finding SHAKE clusters ...
       0 = # of size 2 clusters
       0 = # of size 3 clusters
       0 = # of size 4 clusters
    2000 = # of frozen angles
  find clusters CPU = 0.192 seconds
minimize 0.0 0.0 1000 1000000
PPPM initialization ...
  using 12-bit tables for long-range coulomb (src/kspace.cpp:342)
  G vector (1/distance) = 0.28515695
  grid = 80 80 80
  stencil order = 5
  estimated absolute RMS force accuracy = 0.00017907316
  estimated relative force accuracy = 1.2435943e-05
  using double precision KISS FFT
  3d grid and FFT values/proc = 4335 960
Generated 0 of 3 mixed pair_coeff terms from geometric mixing rule
WARNING: Using fix shake with minimization.
  Substituting constraints with harmonic restraint forces using kbond=86.17 (src/RIGID/fix_shake.cpp:386)
Neighbor list info ...
  update: every = 1 steps, delay = 0 steps, check = yes
  max neighbors/atom: 2000, page size: 100000
  master list distance cutoff = 11
  ghost atom cutoff = 11
  binsize = 5.5, bins = 29 27 28
  1 neighbor lists, perpetual/occasional/extra = 1 0 0
  (1) pair lj/cut/coul/long, perpetual
      attributes: half, newton on
      pair build: half/bin/newton
      stencil: half/bin/3d
      bin: standard
Per MPI rank memory allocation (min/avg/max) = 9.12 | 9.178 | 9.926 Mbytes
   Step          Temp          E_pair         E_mol          TotEng         Press     
         0   143.62787     -875.71333      0             -641.06576      407.98604    
        10   143.62787     -993.46671      0             -743.7609       111.66684    
        20   143.62787     -1041.4561      0             -790.40744      213.92632    
        30   143.62787     -1064.6689      0             -810.73161      135.25233    
        40   143.62787     -1087.3762      0             -832.10945      188.83574    
        50   143.62787     -1099.5389      0             -842.59003      183.43381    
        60   143.62787     -1104.5907      0              5386768.9     -922939.43    
SHAKE stats (type/ave/delta/count) on step 60
Bond:   1   2.0281    26.3685         3992
Angle:  1   101.499   173.057         1985
Loop time of 1.08568 on 640 procs for 60 steps with 14640 atoms

99.1% CPU use with 640 MPI tasks x 1 OpenMP threads

Minimization stats:
  Stopping criterion = linesearch alpha is zero
  Energy initial, next-to-last, final = 
     -875.713331286945  -1082.53392200057   5386534.29343911
  Force two-norm initial, final = 81.442921 72079.187
  Force max component initial, final = 3.6463573 7251.7596
  Final line search alpha, max atom move = 1.3541429e-10 9.8199188e-07
  Iterations, force evaluations = 60 147

MPI task timing breakdown:
Section |  min time  |  avg time  |  max time  |%varavg| %total
---------------------------------------------------------------
Pair    | 1.977e-05  | 0.01139    | 0.58836    |  53.3 |  1.05
Bond    | 1.8083e-05 | 4.0745e-05 | 7.8475e-05 |   0.0 |  0.00
Kspace  | 0.44232    | 1.0363     | 1.0511     |   5.8 | 95.45
Neigh   | 0.0042915  | 0.0046395  | 0.0047353  |   0.2 |  0.43
Comm    | 0.000147   | 0.0042845  | 0.029613   |  10.1 |  0.39
Output  | 0.00079056 | 0.00079957 | 0.00085772 |   0.0 |  0.07
Modify  | 0.00026689 | 0.001229   | 0.003474   |   0.9 |  0.11
Other   |            | 0.02701    |            |       |  2.49

Nlocal:         22.875 ave         617 max           0 min
Histogram: 555 63 6 3 2 1 1 1 4 4
Nghost:        225.691 ave        3265 max           0 min
Histogram: 465 110 28 10 11 6 6 2 0 2
Neighs:        3201.74 ave      169520 max           0 min
Histogram: 623 5 1 2 0 1 2 3 1 2

Total # of neighbors = 2049115
Ave neighs/atom = 139.96687
Ave special neighs/atom = 0.81967213
Neighbor list builds = 1
Dangerous builds = 0
unfix graphene_fix
reset_timestep 0

######### Soft run to prevent explosion #########

thermo 150
timestep 0.00001
fix NVT1 H2O nvt temp 300 300 $(20.0*dt)
fix NVT1 H2O nvt temp 300 300 0.00020000000000000000958
run 1500
PPPM initialization ...
  using 12-bit tables for long-range coulomb (src/kspace.cpp:342)
  G vector (1/distance) = 0.28515695
  grid = 80 80 80
  stencil order = 5
  estimated absolute RMS force accuracy = 0.00017907316
  estimated relative force accuracy = 1.2435943e-05
  using double precision KISS FFT
  3d grid and FFT values/proc = 4335 960
Generated 0 of 3 mixed pair_coeff terms from geometric mixing rule
SHAKE stats (type/ave/delta/count) on step 0
Bond:   1   1.00733   0.0167919       4000
Angle:  1   108.017   3.66546         2000
Per MPI rank memory allocation (min/avg/max) = 7.995 | 8.053 | 8.801 Mbytes
   Step          Temp          E_pair         E_mol          TotEng         Press     
         0   143.62787     -1104.5907      0             -869.94314     -5142.9374    
       150   95.388239     -1057.9937      0             -902.15608     -111.9347     
       300   94.503782     -1050.7743      0             -896.38165     -105.35277    
       450   95.681935     -1039.5743      0             -883.25686     -94.393549    
       600   95.400875     -1025.5277      0             -869.66949     -80.781971    
       750   94.518067     -1010.125       0             -855.70904     -65.501135    
       900   94.304771     -994.84647      0             -840.77898     -49.329194    
      1050   94.431012     -981.04714      0             -826.7734      -33.525069    
      1200   94.538943     -969.78145      0             -815.33139     -19.285941    
      1350   94.850086     -961.58872      0             -806.63034     -7.1865319    
      1500   95.432495     -956.46141      0             -800.55153      2.5519346    
Loop time of 9.15078 on 640 procs for 1500 steps with 14640 atoms

Performance: 0.142 ns/day, 169.459 hours/ns, 163.920 timesteps/s, 2.400 Matom-step/s
99.9% CPU use with 640 MPI tasks x 1 OpenMP threads

MPI task timing breakdown:
Section |  min time  |  avg time  |  max time  |%varavg| %total
---------------------------------------------------------------
Pair    | 0.00012163 | 0.076439   | 4.1286     | 144.0 |  0.84
Bond    | 0.00011925 | 0.00025649 | 0.00051321 |   0.0 |  0.00
Kspace  | 4.4537     | 8.4361     | 8.6058     |  13.5 | 92.19
Neigh   | 0          | 0          | 0          |   0.0 |  0.00
Comm    | 0.0004187  | 0.061906   | 0.47912    |  43.8 |  0.68
Output  | 0.001996   | 0.0020298  | 0.0021447  |   0.0 |  0.02
Modify  | 0.21798    | 0.5429     | 0.71937    |  13.6 |  5.93
Other   |            | 0.03119    |            |       |  0.34

Nlocal:         22.875 ave         616 max           0 min
Histogram: 555 63 6 3 2 1 1 1 4 4
Nghost:        225.681 ave        3267 max           0 min
Histogram: 465 110 28 10 11 6 6 2 0 2
Neighs:        3199.43 ave      169238 max           0 min
Histogram: 622 6 1 2 0 1 2 3 1 2

Total # of neighbors = 2047637
Ave neighs/atom = 139.86592
Ave special neighs/atom = 0.81967213
Neighbor list builds = 0
Dangerous builds = 0
unfix NVT1
reset_timestep 0

######### A little bit faster #########

thermo 150
timestep 0.00002
fix NVT1 H2O nvt temp 300 300 $(25.0*dt)
fix NVT1 H2O nvt temp 300 300 0.00050000000000000001041
run 1500
PPPM initialization ...
  using 12-bit tables for long-range coulomb (src/kspace.cpp:342)
  G vector (1/distance) = 0.28515695
  grid = 80 80 80
  stencil order = 5
  estimated absolute RMS force accuracy = 0.00017907316
  estimated relative force accuracy = 1.2435943e-05
  using double precision KISS FFT
  3d grid and FFT values/proc = 4335 960
Generated 0 of 3 mixed pair_coeff terms from geometric mixing rule
SHAKE stats (type/ave/delta/count) on step 0
Bond:   1   1         8.93382e-11     4000
Angle:  1   109.47    5.92362e-09     2000
Per MPI rank memory allocation (min/avg/max) = 7.995 | 8.053 | 8.801 Mbytes
   Step          Temp          E_pair         E_mol          TotEng         Press     
         0   95.432495     -956.46141      0             -800.55153      2.5509085    
       150   93.687889     -953.22348      0             -800.1638       14.580517    
       300   95.312262     -953.84547      0             -798.13202      23.2756      
       450   95.028119     -953.45195      0             -798.20271      29.974521    
       600   93.036834     -951.49248      0             -799.49644      34.86619     
       750   97.950945     -950.0201       0             -789.99579      39.007026    
       900   95.129822     -950.16927      0             -794.75387      37.039522    
      1050   94.412694     -950.73556      0             -796.49175      33.516799    
      1200   95.644052     -949.65112      0             -793.39562      30.47002     
      1350   95.446311     -946.59406      0             -790.66162      27.581812    
      1500   92.838203     -943.01069      0             -791.33916      23.727951    
Loop time of 9.11555 on 640 procs for 1500 steps with 14640 atoms

Performance: 0.284 ns/day, 84.403 hours/ns, 164.554 timesteps/s, 2.409 Matom-step/s
100.0% CPU use with 640 MPI tasks x 1 OpenMP threads

MPI task timing breakdown:
Section |  min time  |  avg time  |  max time  |%varavg| %total
---------------------------------------------------------------
Pair    | 0.0001227  | 0.076591   | 4.1205     | 144.3 |  0.84
Bond    | 0.00011791 | 0.00025717 | 0.00048953 |   0.0 |  0.00
Kspace  | 4.4223     | 8.3936     | 8.5695     |  13.6 | 92.08
Neigh   | 0.0042031  | 0.0044795  | 0.0045435  |   0.1 |  0.05
Comm    | 0.00050188 | 0.06232    | 0.48449    |  43.8 |  0.68
Output  | 0.0019963  | 0.0020433  | 0.0021603  |   0.0 |  0.02
Modify  | 0.21668    | 0.54555    | 0.72731    |  13.9 |  5.98
Other   |            | 0.03071    |            |       |  0.34

Nlocal:         22.875 ave         615 max           0 min
Histogram: 555 63 6 3 2 1 1 1 4 4
Nghost:        225.884 ave        3264 max           0 min
Histogram: 465 110 28 10 11 5 7 2 0 2
Neighs:        3199.05 ave      168581 max           0 min
Histogram: 623 4 2 2 0 1 1 4 1 2

Total # of neighbors = 2047395
Ave neighs/atom = 139.84939
Ave special neighs/atom = 0.81967213
Neighbor list builds = 1
Dangerous builds = 0
unfix NVT1
reset_timestep 0

######### And faster still #########

thermo 150
timestep 0.00005
fix NVT1 H2O nvt temp 300 300 $(30.0*dt)
fix NVT1 H2O nvt temp 300 300 0.0015000000000000000312
run 1500
PPPM initialization ...
  using 12-bit tables for long-range coulomb (src/kspace.cpp:342)
  G vector (1/distance) = 0.28515695
  grid = 80 80 80
  stencil order = 5
  estimated absolute RMS force accuracy = 0.00017907316
  estimated relative force accuracy = 1.2435943e-05
  using double precision KISS FFT
  3d grid and FFT values/proc = 4335 960
Generated 0 of 3 mixed pair_coeff terms from geometric mixing rule
SHAKE stats (type/ave/delta/count) on step 0
Bond:   1   1         4.28732e-10     4000
Angle:  1   109.47    3.1399e-08      2000
Per MPI rank memory allocation (min/avg/max) = 7.995 | 8.053 | 8.801 Mbytes
   Step          Temp          E_pair         E_mol          TotEng         Press     
         0   92.838203     -943.01069      0             -791.33916      23.736691    
       150   94.493619     -940.24536      0             -785.86934      11.774565    
       300   93.730789     -937.97263      0             -784.84286      1.1493058    
       450   97.351935     -934.74324      0             -775.69754     -4.1494794    
       600   95.041187     -936.25686      0             -780.98627     -12.19603     
       750   94.083397     -932.85309      0             -779.14726     -12.704016    
       900   94.499029     -927.934        0             -773.54914     -9.1096489    
      1050   96.24932      -923.97976      0             -766.73542     -5.4184161    
      1200   94.912464     -922.6799       0             -767.61961     -5.0655253    
      1350   93.768394     -922.03417      0             -768.84296     -5.0771033    
      1500   92.511134     -922.3784       0             -771.2412      -5.2170997    
Loop time of 9.10244 on 640 procs for 1500 steps with 14640 atoms

Performance: 0.712 ns/day, 33.713 hours/ns, 164.791 timesteps/s, 2.413 Matom-step/s
100.0% CPU use with 640 MPI tasks x 1 OpenMP threads

MPI task timing breakdown:
Section |  min time  |  avg time  |  max time  |%varavg| %total
---------------------------------------------------------------
Pair    | 0.0001264  | 0.076511   | 4.0871     | 144.0 |  0.84
Bond    | 0.00012161 | 0.00025856 | 0.0004973  |   0.0 |  0.00
Kspace  | 4.4293     | 8.3721     | 8.5435     |  13.6 | 91.98
Neigh   | 0.017004   | 0.018056   | 0.018329   |   0.2 |  0.20
Comm    | 0.00077999 | 0.062295   | 0.47532    |  43.5 |  0.68
Output  | 0.0019998  | 0.0020449  | 0.0021753  |   0.1 |  0.02
Modify  | 0.21565    | 0.54038    | 0.71612    |  13.7 |  5.94
Other   |            | 0.03083    |            |       |  0.34

Nlocal:         22.875 ave         613 max           0 min
Histogram: 555 63 6 3 2 1 1 1 4 4
Nghost:        225.781 ave        3267 max           0 min
Histogram: 465 110 28 10 11 6 6 2 0 2
Neighs:        3199.95 ave      168628 max           0 min
Histogram: 623 5 1 2 0 1 1 4 1 2

Total # of neighbors = 2047966
Ave neighs/atom = 139.88839
Ave special neighs/atom = 0.81967213
Neighbor list builds = 4
Dangerous builds = 0
unfix NVT1
reset_timestep 0

######### NVT equilibration for 10 ns #############

thermo 10000
#dump DUMP1 all atom 100 nvt_equi.lammpstrj
timestep 0.001
fix NVT1 H2O nvt temp 300 300 $(100.0*dt)
fix NVT1 H2O nvt temp 300 300 0.10000000000000000555
run 10000000
PPPM initialization ...
  using 12-bit tables for long-range coulomb (src/kspace.cpp:342)
  G vector (1/distance) = 0.28515695
  grid = 80 80 80
  stencil order = 5
  estimated absolute RMS force accuracy = 0.00017907316
  estimated relative force accuracy = 1.2435943e-05
  using double precision KISS FFT
  3d grid and FFT values/proc = 4335 960
Generated 0 of 3 mixed pair_coeff terms from geometric mixing rule
SHAKE stats (type/ave/delta/count) on step 0
Bond:   1   1         4.21827e-09     4000
Angle:  1   109.47    4.72636e-07     2000
Per MPI rank memory allocation (min/avg/max) = 7.995 | 8.053 | 8.801 Mbytes
   Step          Temp          E_pair         E_mol          TotEng         Press     
         0   92.511134     -922.3784       0             -771.2412      -5.2974942    
SHAKE stats (type/ave/delta/count) on step 10000
Bond:   1   1         1.12212e-06     4000
Angle:  1   109.47    8.9863e-05      2000
     10000   95.31697      -927.68119      0             -771.96005     -6.2990471    
SHAKE stats (type/ave/delta/count) on step 20000
Bond:   1   1         1.20401e-06     4000
Angle:  1   109.47    9.19547e-05     2000
     20000   97.381724     -924.88006      0             -765.78569      1.8011193    
SHAKE stats (type/ave/delta/count) on step 30000
Bond:   1   1         1.09451e-06     4000
Angle:  1   109.47    8.79371e-05     2000
     30000   94.116074     -923.91579      0             -770.15658      2.3598947    
SHAKE stats (type/ave/delta/count) on step 40000
Bond:   1   1         1.24854e-06     4000
Angle:  1   109.47    9.15126e-05     2000
     40000   95.43465      -928.79998      0             -772.88658     -6.2277883    
SHAKE stats (type/ave/delta/count) on step 50000
Bond:   1   1         1.2753e-06      4000
Angle:  1   109.47    9.57375e-05     2000
     50000   95.01165      -924.56739      0             -769.34505     -2.9494269    
SHAKE stats (type/ave/delta/count) on step 60000
Bond:   1   1         1.2504e-06      4000
Angle:  1   109.47    9.93901e-05     2000
     60000   97.477141     -923.10571      0             -763.85545     -2.1314206    
SHAKE stats (type/ave/delta/count) on step 70000
Bond:   1   1         1.28286e-06     4000
Angle:  1   109.47    9.51723e-05     2000
     70000   93.648126     -929.70619      0             -776.71147     -2.7907241    
SHAKE stats (type/ave/delta/count) on step 80000
Bond:   1   1         1.16024e-06     4000
Angle:  1   109.47    8.88567e-05     2000
     80000   94.833184     -927.01068      0             -772.07991     -3.1539674    
SHAKE stats (type/ave/delta/count) on step 90000
Bond:   1   1         1.56318e-06     4000
Angle:  1   109.47    9.70641e-05     2000
     90000   95.753781     -928.0752       0             -771.64043      0.17839708   
SHAKE stats (type/ave/delta/count) on step 100000
Bond:   1   1         1.32469e-06     4000
Angle:  1   109.47    0.000128457     2000
    100000   93.306279     -927.76237      0             -775.32613     -6.3383519    
SHAKE stats (type/ave/delta/count) on step 110000
Bond:   1   1         1.26143e-06     4000
Angle:  1   109.47    9.84284e-05     2000
    110000   96.039596     -926.36966      0             -769.46795     -11.247263    
SHAKE stats (type/ave/delta/count) on step 120000
Bond:   1   1         1.18436e-06     4000
Angle:  1   109.47    9.97801e-05     2000
    120000   94.615169     -931.49201      0             -776.91742     -5.1878661    
SHAKE stats (type/ave/delta/count) on step 130000
Bond:   1   1         1.76321e-06     4000
Angle:  1   109.47    0.000129405     2000
    130000   94.622396     -928.50533      0             -773.91893     -9.1963321    
SHAKE stats (type/ave/delta/count) on step 140000
Bond:   1   1         1.64697e-06     4000
Angle:  1   109.47    0.000111152     2000
    140000   95.913831     -923.31652      0             -766.62027     -0.89500429   
SHAKE stats (type/ave/delta/count) on step 150000
Bond:   1   1         1.86116e-06     4000
Angle:  1   109.47    0.000163545     2000
    150000   94.838887     -920.1548       0             -765.21471     -5.3943851    
SHAKE stats (type/ave/delta/count) on step 160000
Bond:   1   1         1.24222e-06     4000
Angle:  1   109.47    8.94112e-05     2000
    160000   96.246725     -926.49836      0             -769.25826     -10.98725     
SHAKE stats (type/ave/delta/count) on step 170000
Bond:   1   1         1.22432e-06     4000
Angle:  1   109.47    0.000110811     2000
    170000   94.822222     -926.15064      0             -771.23778     -12.196988    
SHAKE stats (type/ave/delta/count) on step 180000
Bond:   1   1         1.79004e-06     4000
Angle:  1   109.47    0.000122717     2000
    180000   94.530913     -923.96362      0             -769.52668     -11.477324    
SHAKE stats (type/ave/delta/count) on step 190000
Bond:   1   1         1.50592e-06     4000
Angle:  1   109.47    0.000114228     2000
    190000   95.633559     -929.589        0             -773.35064     -13.552684    
SHAKE stats (type/ave/delta/count) on step 200000
Bond:   1   1         1.14316e-06     4000
Angle:  1   109.47    0.000100128     2000
    200000   95.587663     -933.19153      0             -777.02815     -14.299345    
SHAKE stats (type/ave/delta/count) on step 210000
Bond:   1   1         1.32471e-06     4000
Angle:  1   109.47    9.72835e-05     2000
    210000   92.660577     -924.85798      0             -773.47663     -10.464677    
SHAKE stats (type/ave/delta/count) on step 220000
Bond:   1   1         1.13666e-06     4000
Angle:  1   109.47    9.16062e-05     2000
    220000   95.524049     -923.66184      0             -767.60239     -8.75713      
SHAKE stats (type/ave/delta/count) on step 230000
Bond:   1   1         1.17254e-06     4000
Angle:  1   109.47    0.000116482     2000
    230000   94.112569     -925.20604      0             -771.45255     -0.90673527   
SHAKE stats (type/ave/delta/count) on step 240000
Bond:   1   1         1.13888e-06     4000
Angle:  1   109.47    0.000104453     2000
    240000   94.771672     -930.18297      0             -775.35269     -0.36829724   
SHAKE stats (type/ave/delta/count) on step 250000
Bond:   1   1         1.47794e-06     4000
Angle:  1   109.47    0.000106495     2000
    250000   91.737347     -927.59389      0             -777.72085     -5.7166281    
SHAKE stats (type/ave/delta/count) on step 260000
Bond:   1   1         1.46134e-06     4000
Angle:  1   109.47    9.78021e-05     2000
    260000   95.317243     -926.02762      0             -770.30603     -2.8266401    
SHAKE stats (type/ave/delta/count) on step 270000
Bond:   1   1         1.22413e-06     4000
Angle:  1   109.47    9.86685e-05     2000
    270000   96.536132     -925.47147      0             -767.75856     -13.666317    
SHAKE stats (type/ave/delta/count) on step 280000
Bond:   1   1         1.19239e-06     4000
Angle:  1   109.47    9.95047e-05     2000
    280000   94.445105     -926.65985      0             -772.36309     -10.073521    
SHAKE stats (type/ave/delta/count) on step 290000
Bond:   1   1         1.11225e-06     4000
Angle:  1   109.47    9.70822e-05     2000
    290000   94.484284     -930.94594      0             -776.58517     -0.0082996619 
SHAKE stats (type/ave/delta/count) on step 300000
Bond:   1   1         1.5325e-06      4000
Angle:  1   109.47    0.000109321     2000
    300000   94.04763      -927.02218      0             -773.37478     -5.2480438    
SHAKE stats (type/ave/delta/count) on step 310000
Bond:   1   1         1.10384e-06     4000
Angle:  1   109.47    8.80825e-05     2000
    310000   96.115416     -926.80011      0             -769.77453     -2.7167787    
SHAKE stats (type/ave/delta/count) on step 320000
Bond:   1   1         1.68439e-06     4000
Angle:  1   109.47    0.000132233     2000
    320000   95.534134     -928.31435      0             -772.23842      6.2953175    
SHAKE stats (type/ave/delta/count) on step 330000
Bond:   1   1         1.26109e-06     4000
Angle:  1   109.47    9.28165e-05     2000
    330000   94.380364     -926.28355      0             -772.09256      1.0648488    
SHAKE stats (type/ave/delta/count) on step 340000
Bond:   1   1         1.24284e-06     4000
Angle:  1   109.47    9.83745e-05     2000
    340000   94.421541     -931.05018      0             -776.79191     -3.3551278    
SHAKE stats (type/ave/delta/count) on step 350000
Bond:   1   1         1.50524e-06     4000
Angle:  1   109.47    0.000104181     2000
    350000   95.158137     -920.74851      0             -765.28686      1.9198185    
SHAKE stats (type/ave/delta/count) on step 360000
Bond:   1   1         1.31879e-06     4000
Angle:  1   109.47    9.21039e-05     2000
    360000   94.323865     -917.4998       0             -763.40111      4.3069516    
SHAKE stats (type/ave/delta/count) on step 370000
Bond:   1   1         1.28325e-06     4000
Angle:  1   109.47    0.000109447     2000
    370000   93.502865     -925.83378      0             -773.07638     -17.440192    
SHAKE stats (type/ave/delta/count) on step 380000
Bond:   1   1         1.09368e-06     4000
Angle:  1   109.47    9.62616e-05     2000
    380000   96.868731     -929.45299      0             -771.1967      -7.5162083    
SHAKE stats (type/ave/delta/count) on step 390000
Bond:   1   1         1.44856e-06     4000
Angle:  1   109.47    9.56317e-05     2000
    390000   93.735472     -935.26179      0             -782.12437     -2.6014358    
SHAKE stats (type/ave/delta/count) on step 400000
Bond:   1   1         1.33792e-06     4000
Angle:  1   109.47    0.000100862     2000
    400000   98.668028     -927.65831      0             -766.46248     -2.9985765    
SHAKE stats (type/ave/delta/count) on step 410000
Bond:   1   1         1.59995e-06     4000
Angle:  1   109.47    0.000114725     2000
    410000   92.808787     -924.1932       0             -772.56973     -4.4514271    
SHAKE stats (type/ave/delta/count) on step 420000
Bond:   1   1         1.54124e-06     4000
Angle:  1   109.47    9.54757e-05     2000
    420000   94.549344     -922.37642      0             -767.90936     -10.058054    
SHAKE stats (type/ave/delta/count) on step 430000
Bond:   1   1         1.21349e-06     4000
Angle:  1   109.47    0.000115134     2000
    430000   93.617888     -921.71002      0             -768.7647      -5.3910884    
SHAKE stats (type/ave/delta/count) on step 440000
Bond:   1   1         1.14503e-06     4000
Angle:  1   109.47    8.79116e-05     2000
    440000   97.07137      -928.77814      0             -770.1908      -11.49514     
SHAKE stats (type/ave/delta/count) on step 450000
Bond:   1   1         1.26025e-06     4000
Angle:  1   109.47    9.62576e-05     2000
    450000   94.024993     -924.87239      0             -771.26197      3.4864319    
SHAKE stats (type/ave/delta/count) on step 460000
Bond:   1   1         1.38315e-06     4000
Angle:  1   109.47    9.81866e-05     2000
    460000   95.552591     -923.7921       0             -767.68602     -7.7057852    
SHAKE stats (type/ave/delta/count) on step 470000
Bond:   1   1         1.2146e-06      4000
Angle:  1   109.47    9.24089e-05     2000
    470000   95.213334     -927.34518      0             -771.79335     -9.5843321    
SHAKE stats (type/ave/delta/count) on step 480000
Bond:   1   1         1.32148e-06     4000
Angle:  1   109.47    0.000103874     2000
    480000   96.557204     -930.2402       0             -772.49286      0.91074813   
SHAKE stats (type/ave/delta/count) on step 490000
Bond:   1   1         1.23772e-06     4000
Angle:  1   109.47    9.0106e-05      2000
    490000   93.240267     -928.29901      0             -775.97061     -5.5265828    
SHAKE stats (type/ave/delta/count) on step 500000
Bond:   1   1         1.15788e-06     4000
Angle:  1   109.47    0.000106956     2000
    500000   97.41447      -922.39618      0             -763.24831     -16.027566    
SHAKE stats (type/ave/delta/count) on step 510000
Bond:   1   1         1.14407e-06     4000
Angle:  1   109.47    9.13288e-05     2000
    510000   93.090728     -927.9656       0             -775.88151     -3.666545     
SHAKE stats (type/ave/delta/count) on step 520000
Bond:   1   1         1.42073e-06     4000
Angle:  1   109.47    0.000102891     2000
    520000   94.050191     -928.62416      0             -774.97258     -12.548545    
SHAKE stats (type/ave/delta/count) on step 530000
Bond:   1   1         1.14216e-06     4000
Angle:  1   109.47    9.11301e-05     2000
    530000   93.154255     -928.47601      0             -776.28814     -10.680308    
SHAKE stats (type/ave/delta/count) on step 540000
Bond:   1   1         1.07353e-06     4000
Angle:  1   109.47    9.29318e-05     2000
    540000   93.449393     -923.53368      0             -770.86364     -12.24657     
SHAKE stats (type/ave/delta/count) on step 550000
Bond:   1   1         1.26738e-06     4000
Angle:  1   109.47    9.62521e-05     2000
    550000   93.819802     -928.60055      0             -775.32536     -10.354457    
SHAKE stats (type/ave/delta/count) on step 560000
Bond:   1   1         1.14476e-06     4000
Angle:  1   109.47    0.000100599     2000
    560000   93.515182     -928.70163      0             -775.9241      -7.8186868    
SHAKE stats (type/ave/delta/count) on step 570000
Bond:   1   1         1.51299e-06     4000
Angle:  1   109.47    0.000133534     2000
    570000   94.234368     -930.70022      0             -776.74774     -5.3128992    
SHAKE stats (type/ave/delta/count) on step 580000
Bond:   1   1         1.62696e-06     4000
Angle:  1   109.47    0.000127273     2000
    580000   96.008284     -929.915        0             -773.06445     -4.4840872    
SHAKE stats (type/ave/delta/count) on step 590000
Bond:   1   1         1.22088e-06     4000
Angle:  1   109.47    0.000103968     2000
    590000   93.394166     -925.44465      0             -772.86483     -0.70616378   
SHAKE stats (type/ave/delta/count) on step 600000
Bond:   1   1         1.22593e-06     4000
Angle:  1   109.47    9.79765e-05     2000
    600000   94.637707     -929.14059      0             -774.52917     -14.462858    
SHAKE stats (type/ave/delta/count) on step 610000
Bond:   1   1         1.56271e-06     4000
Angle:  1   109.47    0.000114932     2000
    610000   94.856147     -932.33385      0             -777.36557     -11.31011     
SHAKE stats (type/ave/delta/count) on step 620000
Bond:   1   1         1.14216e-06     4000
Angle:  1   109.47    9.18954e-05     2000
    620000   95.121107     -924.8534       0             -769.45224     -6.6075231    
SHAKE stats (type/ave/delta/count) on step 630000
Bond:   1   1         1.21487e-06     4000
Angle:  1   109.47    0.000108928     2000
    630000   94.572749     -931.33049      0             -776.8252      -13.506241    
SHAKE stats (type/ave/delta/count) on step 640000
Bond:   1   1         1.24638e-06     4000
Angle:  1   109.47    0.000105796     2000
    640000   92.083626     -927.47647      0             -777.0377      -9.4987521    
SHAKE stats (type/ave/delta/count) on step 650000
Bond:   1   1         1.12146e-06     4000
Angle:  1   109.47    9.1106e-05      2000
    650000   95.176466     -922.91634      0             -767.42474     -6.3612023    
SHAKE stats (type/ave/delta/count) on step 660000
Bond:   1   1         1.21049e-06     4000
Angle:  1   109.47    0.00010155      2000
    660000   93.395465     -925.66806      0             -773.08612     -5.6464109    
SHAKE stats (type/ave/delta/count) on step 670000
Bond:   1   1         1.36153e-06     4000
Angle:  1   109.47    0.000108131     2000
    670000   94.14646      -929.63768      0             -775.82882     -4.5446771    
SHAKE stats (type/ave/delta/count) on step 680000
Bond:   1   1         1.08811e-06     4000
Angle:  1   109.47    0.000104171     2000
    680000   96.281229     -927.5621       0             -770.26563     -1.4580003    
SHAKE stats (type/ave/delta/count) on step 690000
Bond:   1   1         1.36762e-06     4000
Angle:  1   109.47    9.78644e-05     2000
    690000   95.661759     -926.48071      0             -770.19628     -4.1258824    
SHAKE stats (type/ave/delta/count) on step 700000
Bond:   1   1         1.62845e-06     4000
Angle:  1   109.47    0.00014619      2000
    700000   93.32646      -929.80562      0             -777.33641      2.8558984    
SHAKE stats (type/ave/delta/count) on step 710000
Bond:   1   1         1.63656e-06     4000
Angle:  1   109.47    0.000105728     2000
    710000   94.556186     -928.57482      0             -774.09658     -16.845577    
SHAKE stats (type/ave/delta/count) on step 720000
Bond:   1   1         1.17245e-06     4000
Angle:  1   109.47    9.53617e-05     2000
    720000   95.29983      -924.18624      0             -768.4931      -7.7898846    
SHAKE stats (type/ave/delta/count) on step 730000
Bond:   1   1         1.29942e-06     4000
Angle:  1   109.47    8.93564e-05     2000
    730000   94.241984     -926.62769      0             -772.66277     -12.750131    
SHAKE stats (type/ave/delta/count) on step 740000
Bond:   1   1         1.5194e-06      4000
Angle:  1   109.47    9.77366e-05     2000
    740000   97.037612     -924.40899      0             -765.8768       8.1713654    
SHAKE stats (type/ave/delta/count) on step 750000
Bond:   1   1         1.34534e-06     4000
Angle:  1   109.47    9.34281e-05     2000
    750000   96.123033     -925.29856      0             -768.26054     -2.005243     
SHAKE stats (type/ave/delta/count) on step 760000
Bond:   1   1         1.14244e-06     4000
Angle:  1   109.47    9.73774e-05     2000
    760000   94.466517     -926.75341      0             -772.42167     -4.4146819    
SHAKE stats (type/ave/delta/count) on step 770000
Bond:   1   1         1.68248e-06     4000
Angle:  1   109.47    0.000132056     2000
    770000   93.469246     -926.417        0             -773.71452     -14.890533    
SHAKE stats (type/ave/delta/count) on step 780000
Bond:   1   1         1.78367e-06     4000
Angle:  1   109.47    0.000155415     2000
    780000   97.873442     -932.50794      0             -772.61024     -3.3084206    
SHAKE stats (type/ave/delta/count) on step 790000
Bond:   1   1         1.21095e-06     4000
Angle:  1   109.47    9.16829e-05     2000
    790000   91.772825     -930.22603      0             -780.29502     -7.823477     
SHAKE stats (type/ave/delta/count) on step 800000
Bond:   1   1         1.21624e-06     4000
Angle:  1   109.47    9.35185e-05     2000
    800000   92.896393     -925.60834      0             -773.84174     -8.1260592    
SHAKE stats (type/ave/delta/count) on step 810000
Bond:   1   1         1.32789e-06     4000
Angle:  1   109.47    9.77287e-05     2000
    810000   93.416767     -925.22851      0             -772.61176     -4.8854786    
SHAKE stats (type/ave/delta/count) on step 820000
Bond:   1   1         1.12753e-06     4000
Angle:  1   109.47    9.58544e-05     2000
    820000   93.849741     -925.92562      0             -772.60151     -4.2089083    
SHAKE stats (type/ave/delta/count) on step 830000
Bond:   1   1         1.41164e-06     4000
Angle:  1   109.47    0.000112535     2000
    830000   94.114212     -925.23496      0             -771.47879     -7.5798676    
SHAKE stats (type/ave/delta/count) on step 840000
Bond:   1   1         1.08881e-06     4000
Angle:  1   109.47    9.32581e-05     2000
    840000   94.382452     -929.44917      0             -775.25477     -4.6445193    
SHAKE stats (type/ave/delta/count) on step 850000
Bond:   1   1         1.26482e-06     4000
Angle:  1   109.47    9.29472e-05     2000
    850000   95.282526     -921.82092      0             -766.15605     -3.4480887    
SHAKE stats (type/ave/delta/count) on step 860000
Bond:   1   1         1.4093e-06      4000
Angle:  1   109.47    9.61418e-05     2000
    860000   94.926585     -929.93922      0             -774.85585     -2.5618716    
SHAKE stats (type/ave/delta/count) on step 870000
Bond:   1   1         1.8064e-06      4000
Angle:  1   109.47    0.000120623     2000
    870000   94.122345     -929.56234      0             -775.79288     -4.7815265    
SHAKE stats (type/ave/delta/count) on step 880000
Bond:   1   1         1.20093e-06     4000
Angle:  1   109.47    0.000104588     2000
    880000   95.149152     -925.24923      0             -769.80226     -3.5684629    
SHAKE stats (type/ave/delta/count) on step 890000
Bond:   1   1         1.29067e-06     4000
Angle:  1   109.47    9.71879e-05     2000
    890000   95.65971      -927.42838      0             -771.1473      -9.583333     
SHAKE stats (type/ave/delta/count) on step 900000
Bond:   1   1         1.05224e-06     4000
Angle:  1   109.47    8.87426e-05     2000
    900000   93.482829     -930.78431      0             -778.05964     -9.4928634    
SHAKE stats (type/ave/delta/count) on step 910000
Bond:   1   1         1.19393e-06     4000
Angle:  1   109.47    9.92361e-05     2000
    910000   93.782129     -926.9963       0             -773.78266     -7.1005383    
SHAKE stats (type/ave/delta/count) on step 920000
Bond:   1   1         1.32678e-06     4000
Angle:  1   109.47    0.000102967     2000
    920000   97.097588     -922.28213      0             -763.65196     -6.4778325    
SHAKE stats (type/ave/delta/count) on step 930000
Bond:   1   1         1.42253e-06     4000
Angle:  1   109.47    9.44259e-05     2000
    930000   94.373097     -923.92158      0             -769.74246     -4.9162643    
SHAKE stats (type/ave/delta/count) on step 940000
Bond:   1   1         1.33589e-06     4000
Angle:  1   109.47    0.00011333      2000
    940000   93.818675     -924.93855      0             -771.6652      -11.295744    
SHAKE stats (type/ave/delta/count) on step 950000
Bond:   1   1         1.8786e-06      4000
Angle:  1   109.47    0.000134491     2000
    950000   95.153066     -927.7385       0             -772.28513     -1.0046177    
SHAKE stats (type/ave/delta/count) on step 960000
Bond:   1   1         1.33717e-06     4000
Angle:  1   109.47    0.000103308     2000
    960000   94.528746     -929.70669      0             -775.27328     -7.7281248    
SHAKE stats (type/ave/delta/count) on step 970000
Bond:   1   1         1.34332e-06     4000
Angle:  1   109.47    0.000101577     2000
    970000   96.308954     -929.81835      0             -772.47658     -7.7482575    
SHAKE stats (type/ave/delta/count) on step 980000
Bond:   1   1         1.36606e-06     4000
Angle:  1   109.47    9.4481e-05      2000
    980000   97.070926     -931.98815      0             -773.40154     -12.149485    
SHAKE stats (type/ave/delta/count) on step 990000
Bond:   1   1         1.32196e-06     4000
Angle:  1   109.47    0.00011101      2000
    990000   95.34456      -928.00694      0             -772.24072      3.7050483    
SHAKE stats (type/ave/delta/count) on step 1000000
Bond:   1   1         1.78581e-06     4000
Angle:  1   109.47    0.000160294     2000
   1000000   96.741227     -930.13462      0             -772.08664      2.1863615    
SHAKE stats (type/ave/delta/count) on step 1010000
Bond:   1   1         1.10785e-06     4000
Angle:  1   109.47    9.79956e-05     2000
   1010000   93.700512     -929.8602       0             -776.77989     -2.1873236    
SHAKE stats (type/ave/delta/count) on step 1020000
Bond:   1   1         1.0701e-06      4000
Angle:  1   109.47    9.48636e-05     2000
   1020000   94.785398     -930.99857      0             -776.14586     -5.2760145    
SHAKE stats (type/ave/delta/count) on step 1030000
Bond:   1   1         1.21669e-06     4000
Angle:  1   109.47    9.47063e-05     2000
   1030000   94.024083     -928.74598      0             -775.13705     -8.3385461    
SHAKE stats (type/ave/delta/count) on step 1040000
Bond:   1   1         1.39479e-06     4000
Angle:  1   109.47    0.000114109     2000
   1040000   97.440134     -929.7079       0             -770.51811     -4.9057253    
SHAKE stats (type/ave/delta/count) on step 1050000
Bond:   1   1         1.41298e-06     4000
Angle:  1   109.47    0.000100496     2000
   1050000   96.275234     -923.90979      0             -766.62311     -5.532557     
SHAKE stats (type/ave/delta/count) on step 1060000
Bond:   1   1         1.25092e-06     4000
Angle:  1   109.47    9.60954e-05     2000
   1060000   96.011593     -922.89857      0             -766.04261     -13.448921    
SHAKE stats (type/ave/delta/count) on step 1070000
Bond:   1   1         1.10839e-06     4000
Angle:  1   109.47    0.000102642     2000
   1070000   92.201734     -923.67998      0             -773.04826      0.31014038   
SHAKE stats (type/ave/delta/count) on step 1080000
Bond:   1   1         1.25978e-06     4000
Angle:  1   109.47    9.42222e-05     2000
   1080000   95.085565     -930.38385      0             -775.04076     -2.446907     
SHAKE stats (type/ave/delta/count) on step 1090000
Bond:   1   1         1.17129e-06     4000
Angle:  1   109.47    0.000121701     2000
   1090000   95.32154      -933.85945      0             -778.13084     -4.1325522    
SHAKE stats (type/ave/delta/count) on step 1100000
Bond:   1   1         1.6072e-06      4000
Angle:  1   109.47    0.000129153     2000
   1100000   93.173709     -930.01304      0             -777.79338      1.6220431    
SHAKE stats (type/ave/delta/count) on step 1110000
Bond:   1   1         1.28508e-06     4000
Angle:  1   109.47    9.38443e-05     2000
   1110000   94.814252     -931.67387      0             -776.77403     -6.5361497    
SHAKE stats (type/ave/delta/count) on step 1120000
Bond:   1   1         1.08184e-06     4000
Angle:  1   109.47    8.8921e-05      2000
   1120000   97.386338     -924.04719      0             -764.94528     -8.1195584    
SHAKE stats (type/ave/delta/count) on step 1130000
Bond:   1   1         1.16828e-06     4000
Angle:  1   109.47    9.38809e-05     2000
   1130000   97.011595     -933.07786      0             -774.58818     -3.1103447    
SHAKE stats (type/ave/delta/count) on step 1140000
Bond:   1   1         1.33276e-06     4000
Angle:  1   109.47    9.56125e-05     2000
   1140000   96.923126     -931.63292      0             -773.28777     -5.6445244    
SHAKE stats (type/ave/delta/count) on step 1150000
Bond:   1   1         1.22226e-06     4000
Angle:  1   109.47    9.42185e-05     2000
   1150000   95.062792     -930.07544      0             -774.76955     -1.8430881    
SHAKE stats (type/ave/delta/count) on step 1160000
Bond:   1   1         1.42114e-06     4000
Angle:  1   109.47    0.000121046     2000
   1160000   93.641748     -921.83689      0             -768.85259      3.1431376    
SHAKE stats (type/ave/delta/count) on step 1170000
Bond:   1   1         1.08119e-06     4000
Angle:  1   109.47    0.000117149     2000
   1170000   95.287678     -929.32116      0             -773.64787      2.6975571    
SHAKE stats (type/ave/delta/count) on step 1180000
Bond:   1   1         1.10388e-06     4000
Angle:  1   109.47    9.39894e-05     2000
   1180000   96.340838     -925.84495      0             -768.45109     -7.0208055    
SHAKE stats (type/ave/delta/count) on step 1190000
Bond:   1   1         1.16623e-06     4000
Angle:  1   109.47    9.09436e-05     2000
   1190000   94.110017     -927.66306      0             -773.91374     -7.8716387    
SHAKE stats (type/ave/delta/count) on step 1200000
Bond:   1   1         1.23324e-06     4000
Angle:  1   109.47    0.00010867      2000
   1200000   95.456714     -930.18002      0             -774.23057     -9.9464339    
SHAKE stats (type/ave/delta/count) on step 1210000
Bond:   1   1         1.12514e-06     4000
Angle:  1   109.47    9.02977e-05     2000
   1210000   94.227433     -927.72255      0             -773.7814       6.2694105    
SHAKE stats (type/ave/delta/count) on step 1220000
Bond:   1   1         1.19587e-06     4000
Angle:  1   109.47    8.96219e-05     2000
   1220000   93.778031     -929.70241      0             -776.49547     -4.6545587    
SHAKE stats (type/ave/delta/count) on step 1230000
Bond:   1   1         1.05777e-06     4000
Angle:  1   109.47    9.1095e-05      2000
   1230000   92.732204     -931.8451       0             -780.34674     -0.69418447   
SHAKE stats (type/ave/delta/count) on step 1240000
Bond:   1   1         1.1491e-06      4000
Angle:  1   109.47    9.96893e-05     2000
   1240000   96.399225     -927.01778      0             -769.52854     -9.2044858    
SHAKE stats (type/ave/delta/count) on step 1250000
Bond:   1   1         1.15713e-06     4000
Angle:  1   109.47    9.6456e-05      2000
   1250000   95.966076     -928.90178      0             -772.12018     -10.330175    
SHAKE stats (type/ave/delta/count) on step 1260000
Bond:   1   1         1.69313e-06     4000
Angle:  1   109.47    0.000119726     2000
   1260000   94.861713     -929.84391      0             -774.86653     -15.068653    
SHAKE stats (type/ave/delta/count) on step 1270000
Bond:   1   1         1.18004e-06     4000
Angle:  1   109.47    9.00972e-05     2000
   1270000   94.150044     -923.77433      0             -769.95962     -11.895652    
SHAKE stats (type/ave/delta/count) on step 1280000
Bond:   1   1         1.3091e-06      4000
Angle:  1   109.47    0.000118521     2000
   1280000   97.189899     -930.98599      0             -772.20501     -8.2992665    
SHAKE stats (type/ave/delta/count) on step 1290000
Bond:   1   1         1.28792e-06     4000
Angle:  1   109.47    9.91697e-05     2000
   1290000   95.168868     -922.36238      0             -766.88319     -6.7936847    
SHAKE stats (type/ave/delta/count) on step 1300000
Bond:   1   1         1.27204e-06     4000
Angle:  1   109.47    9.05898e-05     2000
   1300000   96.038591     -923.79683      0             -766.89676     -10.649488    
SHAKE stats (type/ave/delta/count) on step 1310000
Bond:   1   1         1.0448e-06      4000
Angle:  1   109.47    9.57027e-05     2000
   1310000   96.488387     -933.17738      0             -775.54247     -2.1875067    
SHAKE stats (type/ave/delta/count) on step 1320000
Bond:   1   1         1.08235e-06     4000
Angle:  1   109.47    9.56079e-05     2000
   1320000   93.888729     -927.3559       0             -773.9681      -5.6689849    
SHAKE stats (type/ave/delta/count) on step 1330000
Bond:   1   1         1.3008e-06      4000
Angle:  1   109.47    9.8567e-05      2000
   1330000   93.55783      -934.04318      0             -781.19597     -7.0873532    
SHAKE stats (type/ave/delta/count) on step 1340000
Bond:   1   1         1.45485e-06     4000
Angle:  1   109.47    0.000106106     2000
   1340000   93.838543     -934.65801      0             -781.3522      -1.1918696    
SHAKE stats (type/ave/delta/count) on step 1350000
Bond:   1   1         1.09864e-06     4000
Angle:  1   109.47    9.16401e-05     2000
   1350000   94.406242     -931.7749       0             -777.54163     -5.654971     
SHAKE stats (type/ave/delta/count) on step 1360000
Bond:   1   1         1.34467e-06     4000
Angle:  1   109.47    9.14669e-05     2000
   1360000   93.663295     -929.26617      0             -776.24667     -2.7976029    
SHAKE stats (type/ave/delta/count) on step 1370000
Bond:   1   1         1.73427e-06     4000
Angle:  1   109.47    9.45451e-05     2000
   1370000   96.1798       -923.72534      0             -766.59458     -2.472754     
SHAKE stats (type/ave/delta/count) on step 1380000
Bond:   1   1         1.38302e-06     4000
Angle:  1   109.47    8.93281e-05     2000
   1380000   95.217651     -927.44167      0             -771.88279      0.33426368   
SHAKE stats (type/ave/delta/count) on step 1390000
Bond:   1   1         1.21573e-06     4000
Angle:  1   109.47    9.17664e-05     2000
   1390000   95.393818     -929.45318      0             -773.60649     -5.5498989    
SHAKE stats (type/ave/delta/count) on step 1400000
Bond:   1   1         1.23654e-06     4000
Angle:  1   109.47    9.4734e-05      2000
   1400000   94.586924     -923.56279      0             -769.03434     -14.196867    
SHAKE stats (type/ave/delta/count) on step 1410000
Bond:   1   1         1.39755e-06     4000
Angle:  1   109.47    0.000111679     2000
   1410000   95.325458     -928.5845       0             -772.84949     -10.528418    
SHAKE stats (type/ave/delta/count) on step 1420000
Bond:   1   1         1.11648e-06     4000
Angle:  1   109.47    9.77849e-05     2000
   1420000   97.255913     -923.64148      0             -764.75264     -6.2328253    
SHAKE stats (type/ave/delta/count) on step 1430000
Bond:   1   1         1.18102e-06     4000
Angle:  1   109.47    9.19174e-05     2000
   1430000   94.99994      -930.81262      0             -775.60942     -3.2151211    
SHAKE stats (type/ave/delta/count) on step 1440000
Bond:   1   1         1.23283e-06     4000
Angle:  1   109.47    8.59939e-05     2000
   1440000   95.181821     -932.49892      0             -776.99858     -2.254823     
SHAKE stats (type/ave/delta/count) on step 1450000
Bond:   1   1         1.55484e-06     4000
Angle:  1   109.47    0.000122725     2000
   1450000   94.988458     -929.59535      0             -774.41091     -13.087342    
SHAKE stats (type/ave/delta/count) on step 1460000
Bond:   1   1         1.12761e-06     4000
Angle:  1   109.47    0.000104218     2000
   1460000   95.148846     -925.37528      0             -769.92881     -14.692934    
SHAKE stats (type/ave/delta/count) on step 1470000
Bond:   1   1         1.41465e-06     4000
Angle:  1   109.47    0.000107037     2000
   1470000   95.765243     -932.05945      0             -775.60595     -10.808751    
SHAKE stats (type/ave/delta/count) on step 1480000
Bond:   1   1         1.14728e-06     4000
Angle:  1   109.47    0.000109698     2000
   1480000   95.776592     -931.87326      0             -775.40122     -1.4915581    
SHAKE stats (type/ave/delta/count) on step 1490000
Bond:   1   1         1.47841e-06     4000
Angle:  1   109.47    0.000103028     2000
   1490000   94.543894     -924.0916       0             -769.63345      2.4498628    
SHAKE stats (type/ave/delta/count) on step 1500000
Bond:   1   1         1.03484e-06     4000
Angle:  1   109.47    9.7207e-05      2000
   1500000   97.973281     -929.0933       0             -769.03249     -1.6549543    
SHAKE stats (type/ave/delta/count) on step 1510000
Bond:   1   1         1.19864e-06     4000
Angle:  1   109.47    9.98154e-05     2000
   1510000   95.172778     -924.2975       0             -768.81193     -10.210829    
SHAKE stats (type/ave/delta/count) on step 1520000
Bond:   1   1         1.26389e-06     4000
Angle:  1   109.47    0.000102311     2000
   1520000   95.054163     -925.78655      0             -770.49477     -3.4674424    
SHAKE stats (type/ave/delta/count) on step 1530000
Bond:   1   1         1.41241e-06     4000
Angle:  1   109.47    9.77513e-05     2000
   1530000   96.556989     -928.49711      0             -770.75012     -6.624862     
SHAKE stats (type/ave/delta/count) on step 1540000
Bond:   1   1         1.05051e-06     4000
Angle:  1   109.47    8.48796e-05     2000
   1540000   93.397557     -932.5468       0             -779.96144     -15.192312    
SHAKE stats (type/ave/delta/count) on step 1550000
Bond:   1   1         1.87498e-06     4000
Angle:  1   109.47    0.000130791     2000
   1550000   96.268384     -929.66828      0             -772.3928      -7.0988088    
SHAKE stats (type/ave/delta/count) on step 1560000
Bond:   1   1         1.09487e-06     4000
Angle:  1   109.47    9.16066e-05     2000
   1560000   95.689171     -931.81746      0             -775.48825     -12.93837     
SHAKE stats (type/ave/delta/count) on step 1570000
Bond:   1   1         1.5558e-06      4000
Angle:  1   109.47    0.000105469     2000
   1570000   95.74141      -925.10885      0             -768.6943       3.0284226    
SHAKE stats (type/ave/delta/count) on step 1580000
Bond:   1   1         1.37273e-06     4000
Angle:  1   109.47    0.000111673     2000
   1580000   95.739943     -932.51789      0             -776.10573     -4.3632697    
SHAKE stats (type/ave/delta/count) on step 1590000
Bond:   1   1         1.38756e-06     4000
Angle:  1   109.47    0.000103205     2000
   1590000   94.148942     -927.4944       0             -773.68148     -8.2514961    
SHAKE stats (type/ave/delta/count) on step 1600000
Bond:   1   1         1.06016e-06     4000
Angle:  1   109.47    8.9286e-05      2000
   1600000   94.396567     -929.44996      0             -775.2325      -5.3318488    
SHAKE stats (type/ave/delta/count) on step 1610000
Bond:   1   1         1.21526e-06     4000
Angle:  1   109.47    0.000110037     2000
   1610000   96.531413     -926.63231      0             -768.92711     -14.233611    
SHAKE stats (type/ave/delta/count) on step 1620000
Bond:   1   1         1.2963e-06      4000
Angle:  1   109.47    9.20976e-05     2000
   1620000   93.297573     -928.48064      0             -776.05863     -10.193016    
SHAKE stats (type/ave/delta/count) on step 1630000
Bond:   1   1         1.26257e-06     4000
Angle:  1   109.47    9.93179e-05     2000
   1630000   93.609204     -924.44594      0             -771.51481     -2.4982159    
SHAKE stats (type/ave/delta/count) on step 1640000
Bond:   1   1         1.34818e-06     4000
Angle:  1   109.47    8.97176e-05     2000
   1640000   95.981068     -930.59917      0             -773.79308     -9.1826362    
SHAKE stats (type/ave/delta/count) on step 1650000
Bond:   1   1         1.17444e-06     4000
Angle:  1   109.47    9.57993e-05     2000
   1650000   94.048061     -929.14013      0             -775.49203     -9.068458     
SHAKE stats (type/ave/delta/count) on step 1660000
Bond:   1   1         1.75392e-06     4000
Angle:  1   109.47    0.000127173     2000
   1660000   91.833152     -927.71723      0             -777.68766     -7.4889739    
SHAKE stats (type/ave/delta/count) on step 1670000
Bond:   1   1         1.16421e-06     4000
Angle:  1   109.47    9.62718e-05     2000
   1670000   93.415292     -927.29705      0             -774.68271     -10.009989    
SHAKE stats (type/ave/delta/count) on step 1680000
Bond:   1   1         1.3208e-06      4000
Angle:  1   109.47    9.87758e-05     2000
   1680000   93.573912     -926.35563      0             -773.48215     -9.8545669    
SHAKE stats (type/ave/delta/count) on step 1690000
Bond:   1   1         1.2771e-06      4000
Angle:  1   109.47    9.5019e-05      2000
   1690000   93.550505     -928.67712      0             -775.84188      2.6195501    
SHAKE stats (type/ave/delta/count) on step 1700000
Bond:   1   1         1.40561e-06     4000
Angle:  1   109.47    0.000122318     2000
   1700000   94.418758     -931.17786      0             -776.92414      3.9666516    
SHAKE stats (type/ave/delta/count) on step 1710000
Bond:   1   1         1.18146e-06     4000
Angle:  1   109.47    9.70622e-05     2000
   1710000   94.636012     -932.13836      0             -777.52972     -6.9790291    
SHAKE stats (type/ave/delta/count) on step 1720000
Bond:   1   1         1.44932e-06     4000
Angle:  1   109.47    9.25522e-05     2000
   1720000   92.835835     -929.86658      0             -778.19891      0.41596723   
SHAKE stats (type/ave/delta/count) on step 1730000
Bond:   1   1         1.604e-06       4000
Angle:  1   109.47    9.14779e-05     2000
   1730000   95.154555     -925.18946      0             -769.73366     -3.9237455    
SHAKE stats (type/ave/delta/count) on step 1740000
Bond:   1   1         1.39754e-06     4000
Angle:  1   109.47    0.000106433     2000
   1740000   95.39832      -927.27041      0             -771.41636     -18.817503    
SHAKE stats (type/ave/delta/count) on step 1750000
Bond:   1   1         1.47157e-06     4000
Angle:  1   109.47    0.000104436     2000
   1750000   93.599974     -924.64146      0             -771.7254      -8.2012457    
SHAKE stats (type/ave/delta/count) on step 1760000
Bond:   1   1         1.20867e-06     4000
Angle:  1   109.47    0.000100308     2000
   1760000   93.579438     -925.16643      0             -772.28392     -10.462654    
SHAKE stats (type/ave/delta/count) on step 1770000
Bond:   1   1         1.73889e-06     4000
Angle:  1   109.47    0.000107762     2000
   1770000   95.818896     -924.4821       0             -767.94095     -6.9480518    
SHAKE stats (type/ave/delta/count) on step 1780000
Bond:   1   1         1.46533e-06     4000
Angle:  1   109.47    0.000101538     2000
   1780000   96.497751     -928.16947      0             -770.51926     -13.663038    
SHAKE stats (type/ave/delta/count) on step 1790000
Bond:   1   1         1.21279e-06     4000
Angle:  1   109.47    9.66744e-05     2000
   1790000   94.253746     -921.36456      0             -767.38043     -2.5130042    
SHAKE stats (type/ave/delta/count) on step 1800000
Bond:   1   1         1.21633e-06     4000
Angle:  1   109.47    0.00010713      2000
   1800000   95.224577     -923.66013      0             -768.08994     -8.2970374    
SHAKE stats (type/ave/delta/count) on step 1810000
Bond:   1   1         1.61667e-06     4000
Angle:  1   109.47    9.60302e-05     2000
   1810000   94.892357     -926.90266      0             -771.87522     -4.8065534    
SHAKE stats (type/ave/delta/count) on step 1820000
Bond:   1   1         1.54666e-06     4000
Angle:  1   109.47    0.000116248     2000
   1820000   96.072755     -924.11533      0             -767.15945     -1.3135219    
SHAKE stats (type/ave/delta/count) on step 1830000
Bond:   1   1         1.21461e-06     4000
Angle:  1   109.47    0.000101624     2000
   1830000   95.296917     -929.57292      0             -773.88454     -17.11017     
SHAKE stats (type/ave/delta/count) on step 1840000
Bond:   1   1         1.27454e-06     4000
Angle:  1   109.47    9.5516e-05      2000
   1840000   94.65886      -921.23744      0             -766.59146     -7.6650733    
SHAKE stats (type/ave/delta/count) on step 1850000
Bond:   1   1         1.61745e-06     4000
Angle:  1   109.47    0.000135421     2000
   1850000   95.710574     -930.82441      0             -774.46023     -5.9355771    
SHAKE stats (type/ave/delta/count) on step 1860000
Bond:   1   1         1.66607e-06     4000
Angle:  1   109.47    0.000153069     2000
   1860000   96.056012     -925.93724      0             -769.00871      0.65034039   
SHAKE stats (type/ave/delta/count) on step 1870000
Bond:   1   1         1.22854e-06     4000
Angle:  1   109.47    9.59292e-05     2000
   1870000   95.805371     -922.86869      0             -766.34963     -9.0266576    
SHAKE stats (type/ave/delta/count) on step 1880000
Bond:   1   1         1.31624e-06     4000
Angle:  1   109.47    9.49073e-05     2000
   1880000   94.362179     -924.05429      0             -769.893       -5.8659571    
SHAKE stats (type/ave/delta/count) on step 1890000
Bond:   1   1         1.31675e-06     4000
Angle:  1   109.47    9.30618e-05     2000
   1890000   93.747459     -932.58794      0             -779.43094     -6.2621097    
SHAKE stats (type/ave/delta/count) on step 1900000
Bond:   1   1         1.13793e-06     4000
Angle:  1   109.47    9.79359e-05     2000
   1900000   95.817951     -922.08501      0             -765.5454      -0.19203843   
SHAKE stats (type/ave/delta/count) on step 1910000
Bond:   1   1         1.39961e-06     4000
Angle:  1   109.47    9.40448e-05     2000
   1910000   95.765705     -930.98569      0             -774.53144     -2.1794243    
SHAKE stats (type/ave/delta/count) on step 1920000
Bond:   1   1         1.32209e-06     4000
Angle:  1   109.47    9.95729e-05     2000
   1920000   95.817047     -923.8007       0             -767.26257     -3.5053087    
SHAKE stats (type/ave/delta/count) on step 1930000
Bond:   1   1         1.20595e-06     4000
Angle:  1   109.47    9.79117e-05     2000
   1930000   93.776828     -927.32768      0             -774.1227      -1.7117813    
SHAKE stats (type/ave/delta/count) on step 1940000
Bond:   1   1         1.18882e-06     4000
Angle:  1   109.47    9.53662e-05     2000
   1940000   94.647354     -925.71183      0             -771.08465     -5.8672805    
SHAKE stats (type/ave/delta/count) on step 1950000
Bond:   1   1         1.22646e-06     4000
Angle:  1   109.47    9.1291e-05      2000
   1950000   96.452663     -929.80965      0             -772.2331      -0.44231849   
SHAKE stats (type/ave/delta/count) on step 1960000
Bond:   1   1         1.29825e-06     4000
Angle:  1   109.47    0.000110841     2000
   1960000   94.471958     -928.69229      0             -774.35166     -4.3822163    
SHAKE stats (type/ave/delta/count) on step 1970000
Bond:   1   1         1.26172e-06     4000
Angle:  1   109.47    9.79821e-05     2000
   1970000   96.139065     -928.96604      0             -771.90182     -1.9635855    
SHAKE stats (type/ave/delta/count) on step 1980000
Bond:   1   1         1.3519e-06      4000
Angle:  1   109.47    0.000107355     2000
   1980000   95.057455     -932.58086      0             -777.2837       2.2876337    
SHAKE stats (type/ave/delta/count) on step 1990000
Bond:   1   1         1.638e-06       4000
Angle:  1   109.47    0.0001123       2000
   1990000   94.828436     -924.29805      0             -769.37504      6.0407818    
SHAKE stats (type/ave/delta/count) on step 2000000
Bond:   1   1         1.24693e-06     4000
Angle:  1   109.47    8.69234e-05     2000
   2000000   91.389679     -928.31303      0             -779.00798     -6.972975     
SHAKE stats (type/ave/delta/count) on step 2010000
Bond:   1   1         1.28824e-06     4000
Angle:  1   109.47    0.000103363     2000
   2010000   95.535779     -922.4331       0             -766.35449     -4.9652622    
SHAKE stats (type/ave/delta/count) on step 2020000
Bond:   1   1         1.33335e-06     4000
Angle:  1   109.47    0.000103773     2000
   2020000   96.121063     -928.69471      0             -771.6599      -5.6462969    
SHAKE stats (type/ave/delta/count) on step 2030000
Bond:   1   1         1.13803e-06     4000
Angle:  1   109.47    9.12862e-05     2000
   2030000   93.385894     -918.35658      0             -765.79027     -0.86069502   
SHAKE stats (type/ave/delta/count) on step 2040000
Bond:   1   1         1.44619e-06     4000
Angle:  1   109.47    0.000114609     2000
   2040000   97.519394     -925.78531      0             -766.46602     -5.7591855    
SHAKE stats (type/ave/delta/count) on step 2050000
Bond:   1   1         1.40016e-06     4000
Angle:  1   109.47    0.000115658     2000
   2050000   94.120418     -929.16112      0             -775.39481     -6.0320035    
SHAKE stats (type/ave/delta/count) on step 2060000
Bond:   1   1         1.1788e-06      4000
Angle:  1   109.47    9.83989e-05     2000
   2060000   95.127492     -923.82346      0             -768.41187      3.1285308    
SHAKE stats (type/ave/delta/count) on step 2070000
Bond:   1   1         1.32658e-06     4000
Angle:  1   109.47    9.87748e-05     2000
   2070000   94.10114      -929.34193      0             -775.60712     -10.693374    
SHAKE stats (type/ave/delta/count) on step 2080000
Bond:   1   1         1.33535e-06     4000
Angle:  1   109.47    0.00013044      2000
   2080000   94.154329     -924.19981      0             -770.3781      -6.318059     
SHAKE stats (type/ave/delta/count) on step 2090000
Bond:   1   1         1.22166e-06     4000
Angle:  1   109.47    9.51294e-05     2000
   2090000   93.634046     -921.56387      0             -768.59216     -4.2913167    
SHAKE stats (type/ave/delta/count) on step 2100000
Bond:   1   1         1.20922e-06     4000
Angle:  1   109.47    9.5688e-05      2000
   2100000   93.142811     -929.73078      0             -777.5616      -11.54701     
SHAKE stats (type/ave/delta/count) on step 2110000
Bond:   1   1         1.06966e-06     4000
Angle:  1   109.47    9.44459e-05     2000
   2110000   94.819343     -931.84516      0             -776.937       -9.0121394    
SHAKE stats (type/ave/delta/count) on step 2120000
Bond:   1   1         1.75617e-06     4000
Angle:  1   109.47    0.000127979     2000
   2120000   94.787904     -931.42414      0             -776.56734     -5.466017     
SHAKE stats (type/ave/delta/count) on step 2130000
Bond:   1   1         1.36766e-06     4000
Angle:  1   109.47    0.000111447     2000
   2130000   94.539957     -922.72844      0             -768.27672     -1.7978149    
SHAKE stats (type/ave/delta/count) on step 2140000
Bond:   1   1         1.46503e-06     4000
Angle:  1   109.47    0.000113921     2000
   2140000   91.7917       -927.37288      0             -777.41104     -8.3662434    
SHAKE stats (type/ave/delta/count) on step 2150000
Bond:   1   1         1.24844e-06     4000
Angle:  1   109.47    9.98795e-05     2000
   2150000   93.590381     -934.67295      0             -781.77257     -6.3979693    
SHAKE stats (type/ave/delta/count) on step 2160000
Bond:   1   1         1.31559e-06     4000
Angle:  1   109.47    0.000124776     2000
   2160000   95.041313     -929.24668      0             -773.97589     -1.7350021    
SHAKE stats (type/ave/delta/count) on step 2170000
Bond:   1   1         1.12346e-06     4000
Angle:  1   109.47    0.000104749     2000
   2170000   94.788607     -931.35502      0             -776.49707     -8.0435536    
SHAKE stats (type/ave/delta/count) on step 2180000
Bond:   1   1         1.09996e-06     4000
Angle:  1   109.47    0.000106111     2000
   2180000   95.162718     -930.01114      0             -774.54201     -0.54977147   
SHAKE stats (type/ave/delta/count) on step 2190000
Bond:   1   1         1.41978e-06     4000
Angle:  1   109.47    0.000115612     2000
   2190000   93.635115     -927.84541      0             -774.87195      3.8236292    
SHAKE stats (type/ave/delta/count) on step 2200000
Bond:   1   1         1.20318e-06     4000
Angle:  1   109.47    9.49994e-05     2000
   2200000   93.814314     -925.46532      0             -772.1991      -8.7585801    
SHAKE stats (type/ave/delta/count) on step 2210000
Bond:   1   1         1.36619e-06     4000
Angle:  1   109.47    0.000114909     2000
   2210000   95.54225      -929.25898      0             -773.16979     -2.3294287    
SHAKE stats (type/ave/delta/count) on step 2220000
Bond:   1   1         1.47744e-06     4000
Angle:  1   109.47    0.000115304     2000
   2220000   95.497616     -930.47061      0             -774.45434     -11.401051    
SHAKE stats (type/ave/delta/count) on step 2230000
Bond:   1   1         1.18765e-06     4000
Angle:  1   109.47    9.24144e-05     2000
   2230000   95.224239     -934.42617      0             -778.85652     -6.8373273    
SHAKE stats (type/ave/delta/count) on step 2240000
Bond:   1   1         2.04841e-06     4000
Angle:  1   109.47    0.000142753     2000
   2240000   93.634283     -926.94667      0             -773.97456      2.1298186    
SHAKE stats (type/ave/delta/count) on step 2250000
Bond:   1   1         1.23513e-06     4000
Angle:  1   109.47    0.000100949     2000
   2250000   96.156877     -925.03163      0             -767.93832     -2.4822872    
SHAKE stats (type/ave/delta/count) on step 2260000
Bond:   1   1         1.4015e-06      4000
Angle:  1   109.47    9.2454e-05      2000
   2260000   93.409964     -927.37222      0             -774.76659     -2.0842845    
SHAKE stats (type/ave/delta/count) on step 2270000
Bond:   1   1         1.87645e-06     4000
Angle:  1   109.47    0.000114881     2000
   2270000   95.83104      -930.19741      0             -773.63643     -8.2146244    
SHAKE stats (type/ave/delta/count) on step 2280000
Bond:   1   1         1.40357e-06     4000
Angle:  1   109.47    0.000121189     2000
   2280000   95.515083     -932.40502      0             -776.36021     -2.6404738    
SHAKE stats (type/ave/delta/count) on step 2290000
Bond:   1   1         1.18216e-06     4000
Angle:  1   109.47    0.00010224      2000
   2290000   94.347359     -931.43433      0             -777.29726     -12.276233    
SHAKE stats (type/ave/delta/count) on step 2300000
Bond:   1   1         1.16368e-06     4000
Angle:  1   109.47    9.01339e-05     2000
   2300000   96.097944     -932.7223       0             -775.72526     -8.9029253    
SHAKE stats (type/ave/delta/count) on step 2310000
Bond:   1   1         1.16498e-06     4000
Angle:  1   109.47    0.00011294      2000
   2310000   94.4103       -928.16814      0             -773.92825      3.8214664    
SHAKE stats (type/ave/delta/count) on step 2320000
Bond:   1   1         1.20724e-06     4000
Angle:  1   109.47    0.00010154      2000
   2320000   94.214448     -925.21771      0             -771.29778     -3.7615972    
SHAKE stats (type/ave/delta/count) on step 2330000
Bond:   1   1         1.69527e-06     4000
Angle:  1   109.47    0.000107832     2000
   2330000   95.415388     -927.47656      0             -771.59463     -6.352842     
SHAKE stats (type/ave/delta/count) on step 2340000
Bond:   1   1         1.15185e-06     4000
Angle:  1   109.47    8.99641e-05     2000
   2340000   94.455781     -931.53416      0             -777.21995      1.5263997    
SHAKE stats (type/ave/delta/count) on step 2350000
Bond:   1   1         1.23137e-06     4000
Angle:  1   109.47    0.000102039     2000
   2350000   96.087611     -933.88593      0             -776.90578     -2.1436432    
SHAKE stats (type/ave/delta/count) on step 2360000
Bond:   1   1         1.3793e-06      4000
Angle:  1   109.47    0.000121836     2000
   2360000   95.39515      -926.69482      0             -770.84595     -2.9503779    
SHAKE stats (type/ave/delta/count) on step 2370000
Bond:   1   1         1.36519e-06     4000
Angle:  1   109.47    0.000117418     2000
   2370000   94.528113     -932.56011      0             -778.12774     -5.0320442    
SHAKE stats (type/ave/delta/count) on step 2380000
Bond:   1   1         1.34681e-06     4000
Angle:  1   109.47    9.12958e-05     2000
   2380000   96.445011     -931.49981      0             -773.93577      0.20594997   
SHAKE stats (type/ave/delta/count) on step 2390000
Bond:   1   1         1.2097e-06      4000
Angle:  1   109.47    8.98897e-05     2000
   2390000   95.026042     -927.77841      0             -772.53256     -3.4707964    
SHAKE stats (type/ave/delta/count) on step 2400000
Bond:   1   1         1.26317e-06     4000
Angle:  1   109.47    9.4173e-05      2000
   2400000   94.40774      -926.47866      0             -772.24295     -10.310733    
SHAKE stats (type/ave/delta/count) on step 2410000
Bond:   1   1         1.17567e-06     4000
Angle:  1   109.47    9.75765e-05     2000
   2410000   94.425186     -924.58498      0             -770.32076     -5.8258828    
SHAKE stats (type/ave/delta/count) on step 2420000
Bond:   1   1         1.18168e-06     4000
Angle:  1   109.47    0.000105685     2000
   2420000   94.139058     -933.84575      0             -780.04898     -1.1187022    
SHAKE stats (type/ave/delta/count) on step 2430000
Bond:   1   1         1.42397e-06     4000
Angle:  1   109.47    0.000118588     2000
   2430000   94.489409     -929.9354       0             -775.56626     -0.74453482   
SHAKE stats (type/ave/delta/count) on step 2440000
Bond:   1   1         1.10224e-06     4000
Angle:  1   109.47    0.000106381     2000
   2440000   95.829682     -922.16695      0             -765.60818     -12.508246    
SHAKE stats (type/ave/delta/count) on step 2450000
Bond:   1   1         1.25467e-06     4000
Angle:  1   109.47    9.2632e-05      2000
   2450000   95.329973     -920.42104      0             -764.67866     -3.8231439    
SHAKE stats (type/ave/delta/count) on step 2460000
Bond:   1   1         1.20249e-06     4000
Angle:  1   109.47    0.000103243     2000
   2460000   96.108073     -930.10911      0             -773.09553     -12.630056    
SHAKE stats (type/ave/delta/count) on step 2470000
Bond:   1   1         1.34123e-06     4000
Angle:  1   109.47    9.35855e-05     2000
   2470000   97.642394     -927.78317      0             -768.26294     -11.097084    
SHAKE stats (type/ave/delta/count) on step 2480000
Bond:   1   1         1.01001e-06     4000
Angle:  1   109.47    9.54316e-05     2000
   2480000   95.924002     -930.51472      0             -773.80186     -2.4077801    
SHAKE stats (type/ave/delta/count) on step 2490000
Bond:   1   1         1.00679e-06     4000
Angle:  1   109.47    9.85108e-05     2000
   2490000   93.540284     -928.26007      0             -775.44153     -7.555976     
SHAKE stats (type/ave/delta/count) on step 2500000
Bond:   1   1         1.18243e-06     4000
Angle:  1   109.47    0.000109228     2000
   2500000   96.587242     -926.31634      0             -768.51993     -5.8863921    
SHAKE stats (type/ave/delta/count) on step 2510000
Bond:   1   1         1.61324e-06     4000
Angle:  1   109.47    0.000126749     2000
   2510000   95.877949     -925.27657      0             -768.63894     -0.18644613   
SHAKE stats (type/ave/delta/count) on step 2520000
Bond:   1   1         1.43605e-06     4000
Angle:  1   109.47    0.000117533     2000
   2520000   96.041696     -932.0328       0             -775.12766     -0.29615312   
SHAKE stats (type/ave/delta/count) on step 2530000
Bond:   1   1         1.36296e-06     4000
Angle:  1   109.47    0.00011596      2000
   2530000   95.158249     -926.84871      0             -771.38687     -5.1102266    
SHAKE stats (type/ave/delta/count) on step 2540000
Bond:   1   1         1.7833e-06      4000
Angle:  1   109.47    0.000101965     2000
   2540000   95.906049     -927.08653      0             -770.403       -8.0448254    
SHAKE stats (type/ave/delta/count) on step 2550000
Bond:   1   1         1.29219e-06     4000
Angle:  1   109.47    0.000131185     2000
   2550000   94.437384     -933.79524      0             -779.51109     -8.6585133    
SHAKE stats (type/ave/delta/count) on step 2560000
Bond:   1   1         1.29141e-06     4000
Angle:  1   109.47    9.66349e-05     2000
   2560000   93.654418     -926.82208      0             -773.81707     -7.6482125    
SHAKE stats (type/ave/delta/count) on step 2570000
Bond:   1   1         1.35902e-06     4000
Angle:  1   109.47    0.000109397     2000
   2570000   95.184938     -927.74056      0             -772.23512     -1.1423042    
SHAKE stats (type/ave/delta/count) on step 2580000
Bond:   1   1         1.64345e-06     4000
Angle:  1   109.47    0.000108892     2000
   2580000   94.717067     -932.24916      0             -777.50809     -7.1826765    
SHAKE stats (type/ave/delta/count) on step 2590000
Bond:   1   1         1.65441e-06     4000
Angle:  1   109.47    0.000123648     2000
   2590000   95.655971     -927.7406       0             -771.46562     -11.542934    
SHAKE stats (type/ave/delta/count) on step 2600000
Bond:   1   1         1.56619e-06     4000
Angle:  1   109.47    9.813e-05       2000
   2600000   93.150855     -929.78346      0             -777.60115     -13.156264    
SHAKE stats (type/ave/delta/count) on step 2610000
Bond:   1   1         1.46025e-06     4000
Angle:  1   109.47    8.86306e-05     2000
   2610000   94.350091     -931.36444      0             -777.2229      -8.033415     
SHAKE stats (type/ave/delta/count) on step 2620000
Bond:   1   1         1.38329e-06     4000
Angle:  1   109.47    0.00010154      2000
   2620000   96.045104     -930.46753      0             -773.55683     -7.5718701    
SHAKE stats (type/ave/delta/count) on step 2630000
Bond:   1   1         1.10787e-06     4000
Angle:  1   109.47    0.000104532     2000
   2630000   96.124219     -929.42714      0             -772.38718     -14.303333    
SHAKE stats (type/ave/delta/count) on step 2640000
Bond:   1   1         1.18263e-06     4000
Angle:  1   109.47    8.95353e-05     2000
   2640000   94.489437     -929.9021       0             -775.53291     -9.8414843    
SHAKE stats (type/ave/delta/count) on step 2650000
Bond:   1   1         1.14393e-06     4000
Angle:  1   109.47    9.60696e-05     2000
   2650000   93.447877     -931.2659       0             -778.59833     -8.1186281    
SHAKE stats (type/ave/delta/count) on step 2660000
Bond:   1   1         1.60947e-06     4000
Angle:  1   109.47    0.000109164     2000
   2660000   94.456884     -924.85311      0             -770.5371      -2.2374952    
SHAKE stats (type/ave/delta/count) on step 2670000
Bond:   1   1         1.26237e-06     4000
Angle:  1   109.47    9.70163e-05     2000
   2670000   94.315414     -922.45849      0             -768.37361     -13.617403    
SHAKE stats (type/ave/delta/count) on step 2680000
Bond:   1   1         1.26691e-06     4000
Angle:  1   109.47    9.56162e-05     2000
   2680000   93.35534      -932.08749      0             -779.5711       1.4292105    
SHAKE stats (type/ave/delta/count) on step 2690000
Bond:   1   1         1.35859e-06     4000
Angle:  1   109.47    0.000130064     2000
   2690000   94.027743     -924.80307      0             -771.18816     -12.882408    
SHAKE stats (type/ave/delta/count) on step 2700000
Bond:   1   1         1.73035e-06     4000
Angle:  1   109.47    0.000127197     2000
   2700000   94.781382     -931.46114      0             -776.615       -4.5495622    
SHAKE stats (type/ave/delta/count) on step 2710000
Bond:   1   1         1.32087e-06     4000
Angle:  1   109.47    0.000100455     2000
   2710000   97.453897     -929.88635      0             -770.67407     -13.460077    
SHAKE stats (type/ave/delta/count) on step 2720000
Bond:   1   1         1.03986e-06     4000
Angle:  1   109.47    0.000103583     2000
   2720000   94.029861     -930.28657      0             -776.6682       1.0865641    
SHAKE stats (type/ave/delta/count) on step 2730000
Bond:   1   1         1.27438e-06     4000
Angle:  1   109.47    9.68062e-05     2000
   2730000   96.088374     -931.28003      0             -774.29863     -4.711148     
SHAKE stats (type/ave/delta/count) on step 2740000
Bond:   1   1         1.67572e-06     4000
Angle:  1   109.47    0.000126604     2000
   2740000   96.775577     -928.65022      0             -770.54612     -6.6358813    
SHAKE stats (type/ave/delta/count) on step 2750000
Bond:   1   1         1.28607e-06     4000
Angle:  1   109.47    9.79296e-05     2000
   2750000   94.669244     -924.17469      0             -769.51175     -8.3454387    
SHAKE stats (type/ave/delta/count) on step 2760000
Bond:   1   1         1.49371e-06     4000
Angle:  1   109.47    0.000107106     2000
   2760000   94.937955     -928.35634      0             -773.2544      -10.089998    
SHAKE stats (type/ave/delta/count) on step 2770000
Bond:   1   1         1.20888e-06     4000
Angle:  1   109.47    0.000103281     2000
   2770000   95.909787     -926.8763       0             -770.18667     -12.493237    
SHAKE stats (type/ave/delta/count) on step 2780000
Bond:   1   1         1.39142e-06     4000
Angle:  1   109.47    9.32616e-05     2000
   2780000   95.071433     -929.736        0             -774.41599     -4.5262449    
SHAKE stats (type/ave/delta/count) on step 2790000
Bond:   1   1         1.62997e-06     4000
Angle:  1   109.47    0.000126505     2000
   2790000   94.938139     -928.24604      0             -773.1438      -11.091734    
SHAKE stats (type/ave/delta/count) on step 2800000
Bond:   1   1         1.62855e-06     4000
Angle:  1   109.47    0.000107927     2000
   2800000   95.587087     -925.4024       0             -769.23996     -12.890031    
SHAKE stats (type/ave/delta/count) on step 2810000
Bond:   1   1         1.16588e-06     4000
Angle:  1   109.47    9.70745e-05     2000
   2810000   95.893777     -926.27934      0             -769.61586     -19.495617    
SHAKE stats (type/ave/delta/count) on step 2820000
Bond:   1   1         1.11797e-06     4000
Angle:  1   109.47    9.98548e-05     2000
   2820000   94.830506     -924.25614      0             -769.32975     -8.8984922    
SHAKE stats (type/ave/delta/count) on step 2830000
Bond:   1   1         1.14469e-06     4000
Angle:  1   109.47    0.000109257     2000
   2830000   92.879256     -927.6895       0             -775.9509      -7.6448478    
SHAKE stats (type/ave/delta/count) on step 2840000
Bond:   1   1         1.24036e-06     4000
[...]
SHAKE stats (type/ave/delta/count) on step 9220000
Bond:   1   1         1.20344e-06     4000
Angle:  1   109.47    9.06409e-05     2000
   9220000   96.46804      -925.664        0             -768.06233     -11.889445    
SHAKE stats (type/ave/delta/count) on step 9230000
Bond:   1   1         1.34234e-06     4000
Angle:  1   109.47    9.90892e-05     2000
   9230000   93.286379     -925.37967      0             -772.97594      7.3732957    
SHAKE stats (type/ave/delta/count) on step 9240000
Bond:   1   1         1.14197e-06     4000
Angle:  1   109.47    9.07871e-05     2000
   9240000   93.396027     -926.96452      0             -774.38166     -12.207284    
SHAKE stats (type/ave/delta/count) on step 9250000
Bond:   1   1         1.18318e-06     4000
Angle:  1   109.47    9.34802e-05     2000
   9250000   93.668529     -932.21445      0             -779.1864      -12.619646    
SHAKE stats (type/ave/delta/count) on step 9260000
Bond:   1   1         1.54384e-06     4000
Angle:  1   109.47    0.000126268     2000
   9260000   93.395625     -926.83032      0             -774.24812     -3.3800348    
SHAKE stats (type/ave/delta/count) on step 9270000
Bond:   1   1         1.24927e-06     4000
Angle:  1   109.47    0.000103738     2000
   9270000   94.458638     -929.36501      0             -775.04614      3.0921164    
SHAKE stats (type/ave/delta/count) on step 9280000
Bond:   1   1         1.29698e-06     4000
Angle:  1   109.47    9.06116e-05     2000
   9280000   94.284008     -929.52402      0             -775.49044     -3.2634093    
SHAKE stats (type/ave/delta/count) on step 9290000
Bond:   1   1         1.36634e-06     4000
Angle:  1   109.47    0.000106824     2000
   9290000   97.997389     -929.6286       0             -769.52841     -2.1700123    
SHAKE stats (type/ave/delta/count) on step 9300000
Bond:   1   1         1.2941e-06      4000
Angle:  1   109.47    0.000109372     2000
   9300000   94.674342     -920.18819      0             -765.51692     -10.850461    
SHAKE stats (type/ave/delta/count) on step 9310000
Bond:   1   1         1.18386e-06     4000
Angle:  1   109.47    9.93374e-05     2000
   9310000   94.739647     -930.51853      0             -775.74057     -3.2797877    
SHAKE stats (type/ave/delta/count) on step 9320000
Bond:   1   1         1.24678e-06     4000
Angle:  1   109.47    9.25397e-05     2000
   9320000   93.734105     -923.19548      0             -770.06029     -10.865198    
SHAKE stats (type/ave/delta/count) on step 9330000
Bond:   1   1         1.39498e-06     4000
Angle:  1   109.47    0.000105896     2000
   9330000   94.965397     -925.84277      0             -770.696       -17.777024    
SHAKE stats (type/ave/delta/count) on step 9340000
Bond:   1   1         1.40866e-06     4000
Angle:  1   109.47    9.89973e-05     2000
   9340000   92.455642     -931.80499      0             -780.75845      0.15689429   
SHAKE stats (type/ave/delta/count) on step 9350000
Bond:   1   1         1.66693e-06     4000
Angle:  1   109.47    0.000142182     2000
   9350000   96.278541     -925.27676      0             -767.98468     -13.489563    
SHAKE stats (type/ave/delta/count) on step 9360000
Bond:   1   1         1.25163e-06     4000
Angle:  1   109.47    8.75089e-05     2000
   9360000   96.070455     -925.89631      0             -768.94418      2.9770871    
SHAKE stats (type/ave/delta/count) on step 9370000
Bond:   1   1         1.39872e-06     4000
Angle:  1   109.47    9.41707e-05     2000
   9370000   95.298536     -927.53666      0             -771.84563     -6.6299858    
SHAKE stats (type/ave/delta/count) on step 9380000
Bond:   1   1         1.61443e-06     4000
Angle:  1   109.47    0.000121065     2000
   9380000   95.416851     -930.98026      0             -775.09593     -16.47351     
SHAKE stats (type/ave/delta/count) on step 9390000
Bond:   1   1         1.12257e-06     4000
Angle:  1   109.47    9.33297e-05     2000
   9390000   93.84984      -922.35472      0             -769.03046     -7.6371263    
SHAKE stats (type/ave/delta/count) on step 9400000
Bond:   1   1         2.0556e-06      4000
Angle:  1   109.47    0.00012846      2000
   9400000   95.930764     -927.53385      0             -770.80994     -17.040899    
SHAKE stats (type/ave/delta/count) on step 9410000
Bond:   1   1         1.16788e-06     4000
Angle:  1   109.47    0.000115272     2000
   9410000   93.538677     -927.58048      0             -774.76456     -2.1216525    
SHAKE stats (type/ave/delta/count) on step 9420000
Bond:   1   1         1.20384e-06     4000
Angle:  1   109.47    0.00010583      2000
   9420000   96.042322     -925.93916      0             -769.033       -8.5605884    
SHAKE stats (type/ave/delta/count) on step 9430000
Bond:   1   1         1.4347e-06      4000
Angle:  1   109.47    9.55741e-05     2000
   9430000   95.026535     -927.39823      0             -772.15158      5.0260093    
SHAKE stats (type/ave/delta/count) on step 9440000
Bond:   1   1         1.2444e-06      4000
Angle:  1   109.47    0.000128057     2000
   9440000   95.817377     -930.10101      0             -773.56235      0.55383859   
SHAKE stats (type/ave/delta/count) on step 9450000
Bond:   1   1         9.45065e-07     4000
Angle:  1   109.47    9.16341e-05     2000
   9450000   94.764695     -928.56924      0             -773.75036     -0.17902831   
SHAKE stats (type/ave/delta/count) on step 9460000
Bond:   1   1         1.3283e-06      4000
Angle:  1   109.47    9.62033e-05     2000
   9460000   94.837565     -922.5301       0             -767.59217     -14.983969    
SHAKE stats (type/ave/delta/count) on step 9470000
Bond:   1   1         1.24944e-06     4000
Angle:  1   109.47    9.80461e-05     2000
   9470000   94.757121     -925.74545      0             -770.93894     -2.6710751    
SHAKE stats (type/ave/delta/count) on step 9480000
Bond:   1   1         1.38747e-06     4000
Angle:  1   109.47    0.000102784     2000
   9480000   96.471215     -927.96818      0             -770.36132     -11.606855    
SHAKE stats (type/ave/delta/count) on step 9490000
Bond:   1   1         1.41335e-06     4000
Angle:  1   109.47    0.000151551     2000
   9490000   94.004275     -927.49141      0             -773.91484     -9.0679787    
SHAKE stats (type/ave/delta/count) on step 9500000
Bond:   1   1         1.4795e-06      4000
Angle:  1   109.47    0.000110504     2000
   9500000   94.777778     -926.02729      0             -771.18704     -8.1555833    
SHAKE stats (type/ave/delta/count) on step 9510000
Bond:   1   1         1.30546e-06     4000
Angle:  1   109.47    0.000120208     2000
   9510000   94.620146     -930.02497      0             -775.44224     -3.1326868    
SHAKE stats (type/ave/delta/count) on step 9520000
Bond:   1   1         1.23759e-06     4000
Angle:  1   109.47    0.000121611     2000
   9520000   95.131802     -921.28553      0             -765.8669      -10.415775    
SHAKE stats (type/ave/delta/count) on step 9530000
Bond:   1   1         1.422e-06       4000
Angle:  1   109.47    0.000118511     2000
   9530000   95.595476     -931.03467      0             -774.85853     -2.9975806    
SHAKE stats (type/ave/delta/count) on step 9540000
Bond:   1   1         1.20206e-06     4000
Angle:  1   109.47    9.29133e-05     2000
   9540000   94.845016     -928.22782      0             -773.27772     -6.4157911    
SHAKE stats (type/ave/delta/count) on step 9550000
Bond:   1   1         1.57429e-06     4000
Angle:  1   109.47    9.92739e-05     2000
   9550000   95.698906     -927.78005      0             -771.43493     -14.802881    
SHAKE stats (type/ave/delta/count) on step 9560000
Bond:   1   1         1.35423e-06     4000
Angle:  1   109.47    0.000132489     2000
   9560000   96.520969     -925.24146      0             -767.55333     -8.309484     
SHAKE stats (type/ave/delta/count) on step 9570000
Bond:   1   1         1.0977e-06      4000
Angle:  1   109.47    8.90321e-05     2000
   9570000   98.758942     -929.02279      0             -767.67843     -2.5886854    
SHAKE stats (type/ave/delta/count) on step 9580000
Bond:   1   1         1.51794e-06     4000
Angle:  1   109.47    0.000118297     2000
   9580000   94.724637     -926.6193       0             -771.86586     -9.65303      
SHAKE stats (type/ave/delta/count) on step 9590000
Bond:   1   1         1.0562e-06      4000
Angle:  1   109.47    9.48562e-05     2000
   9590000   96.053641     -925.57008      0             -768.64543      5.0883538    
SHAKE stats (type/ave/delta/count) on step 9600000
Bond:   1   1         1.01764e-06     4000
Angle:  1   109.47    0.00012971      2000
   9600000   94.634297     -930.19968      0             -775.59383     -5.2542242    
SHAKE stats (type/ave/delta/count) on step 9610000
Bond:   1   1         1.32488e-06     4000
Angle:  1   109.47    8.9306e-05      2000
   9610000   96.008159     -924.85561      0             -768.00526     -9.0852588    
SHAKE stats (type/ave/delta/count) on step 9620000
Bond:   1   1         1.64292e-06     4000
Angle:  1   109.47    0.000129111     2000
   9620000   95.602509     -924.00406      0             -767.81643     -11.694226    
SHAKE stats (type/ave/delta/count) on step 9630000
Bond:   1   1         1.15047e-06     4000
Angle:  1   109.47    0.000101218     2000
   9630000   93.976287     -929.03113      0             -775.50029     -13.530648    
SHAKE stats (type/ave/delta/count) on step 9640000
Bond:   1   1         1.13358e-06     4000
Angle:  1   109.47    8.72708e-05     2000
   9640000   96.527284     -924.55186      0             -766.8534      -4.2773106    
SHAKE stats (type/ave/delta/count) on step 9650000
Bond:   1   1         1.85698e-06     4000
Angle:  1   109.47    0.000139286     2000
   9650000   94.890757     -927.67089      0             -772.64606     -3.658944     
SHAKE stats (type/ave/delta/count) on step 9660000
Bond:   1   1         1.22214e-06     4000
Angle:  1   109.47    9.13959e-05     2000
   9660000   93.935624     -930.16137      0             -776.69695      0.27646921   
SHAKE stats (type/ave/delta/count) on step 9670000
Bond:   1   1         1.43991e-06     4000
Angle:  1   109.47    0.000117907     2000
   9670000   96.640186     -927.8654       0             -769.98249     -4.3706362    
SHAKE stats (type/ave/delta/count) on step 9680000
Bond:   1   1         1.33961e-06     4000
Angle:  1   109.47    9.63346e-05     2000
   9680000   95.197849     -923.43984      0             -767.9133      -1.2942274    
SHAKE stats (type/ave/delta/count) on step 9690000
Bond:   1   1         1.35385e-06     4000
Angle:  1   109.47    9.68798e-05     2000
   9690000   93.966721     -922.30881      0             -768.7936       4.4785079    
SHAKE stats (type/ave/delta/count) on step 9700000
Bond:   1   1         1.39984e-06     4000
Angle:  1   109.47    0.0001116       2000
   9700000   95.528519     -928.04981      0             -771.98306     -10.809597    
SHAKE stats (type/ave/delta/count) on step 9710000
Bond:   1   1         1.63033e-06     4000
Angle:  1   109.47    0.000102994     2000
   9710000   94.753636     -921.29685      0             -766.49603     -3.2030576    
SHAKE stats (type/ave/delta/count) on step 9720000
Bond:   1   1         1.2211e-06      4000
Angle:  1   109.47    9.31891e-05     2000
   9720000   96.363242     -925.52622      0             -768.09576     -0.093000583  
SHAKE stats (type/ave/delta/count) on step 9730000
Bond:   1   1         1.10065e-06     4000
Angle:  1   109.47    0.000103148     2000
   9730000   95.608833     -924.11996      0             -767.922       -5.7627417    
SHAKE stats (type/ave/delta/count) on step 9740000
Bond:   1   1         1.25766e-06     4000
Angle:  1   109.47    0.000104776     2000
   9740000   94.060599     -924.03228      0             -770.3637       4.0830697    
SHAKE stats (type/ave/delta/count) on step 9750000
Bond:   1   1         1.12113e-06     4000
Angle:  1   109.47    9.05363e-05     2000
   9750000   94.661002     -924.85502      0             -770.20554     -9.2465952    
SHAKE stats (type/ave/delta/count) on step 9760000
Bond:   1   1         1.53623e-06     4000
Angle:  1   109.47    0.000121286     2000
   9760000   94.121889     -924.91877      0             -771.15006     -1.7072699    
SHAKE stats (type/ave/delta/count) on step 9770000
Bond:   1   1         1.37373e-06     4000
Angle:  1   109.47    0.000100184     2000
   9770000   96.737513     -927.92006      0             -769.87815     -3.2683317    
SHAKE stats (type/ave/delta/count) on step 9780000
Bond:   1   1         1.12573e-06     4000
Angle:  1   109.47    8.73173e-05     2000
   9780000   95.406475     -923.42508      0             -767.55771     -2.4208119    
SHAKE stats (type/ave/delta/count) on step 9790000
Bond:   1   1         1.56122e-06     4000
Angle:  1   109.47    0.000123436     2000
   9790000   94.581892     -926.33251      0             -771.81227     -11.687644    
SHAKE stats (type/ave/delta/count) on step 9800000
Bond:   1   1         1.5249e-06      4000
Angle:  1   109.47    9.88884e-05     2000
   9800000   92.678089     -926.21512      0             -774.80517     -8.4268129    
SHAKE stats (type/ave/delta/count) on step 9810000
Bond:   1   1         1.7878e-06      4000
Angle:  1   109.47    0.000113688     2000
   9810000   95.480916     -925.39931      0             -769.41033     -8.8843498    
SHAKE stats (type/ave/delta/count) on step 9820000
Bond:   1   1         1.31466e-06     4000
Angle:  1   109.47    9.44793e-05     2000
   9820000   94.548926     -922.17022      0             -767.70385     -10.284074    
SHAKE stats (type/ave/delta/count) on step 9830000
Bond:   1   1         1.1857e-06      4000
Angle:  1   109.47    9.68876e-05     2000
   9830000   94.038984     -923.11105      0             -769.47778      0.55417713   
SHAKE stats (type/ave/delta/count) on step 9840000
Bond:   1   1         1.07749e-06     4000
Angle:  1   109.47    0.000106819     2000
   9840000   94.475445     -926.19235      0             -771.84602      4.4760188    
SHAKE stats (type/ave/delta/count) on step 9850000
Bond:   1   1         1.13007e-06     4000
Angle:  1   109.47    9.37015e-05     2000
   9850000   95.123357     -934.14761      0             -778.74278     -5.5713922    
SHAKE stats (type/ave/delta/count) on step 9860000
Bond:   1   1         1.21475e-06     4000
Angle:  1   109.47    9.94022e-05     2000
   9860000   93.908735     -928.05149      0             -774.63101      2.404696     
SHAKE stats (type/ave/delta/count) on step 9870000
Bond:   1   1         1.24835e-06     4000
Angle:  1   109.47    0.00010628      2000
   9870000   95.42248      -930.19844      0             -774.30493     -7.677783     
SHAKE stats (type/ave/delta/count) on step 9880000
Bond:   1   1         1.85282e-06     4000
Angle:  1   109.47    0.000136639     2000
   9880000   96.128933     -926.45034      0             -769.40268     -5.6252954    
SHAKE stats (type/ave/delta/count) on step 9890000
Bond:   1   1         1.71702e-06     4000
Angle:  1   109.47    0.000142695     2000
   9890000   94.648829     -921.1834       0             -766.55381     -6.3387098    
SHAKE stats (type/ave/delta/count) on step 9900000
Bond:   1   1         1.33101e-06     4000
Angle:  1   109.47    0.000106695     2000
   9900000   94.440812     -921.33025      0             -767.04051     -9.3455708    
SHAKE stats (type/ave/delta/count) on step 9910000
Bond:   1   1         1.40692e-06     4000
Angle:  1   109.47    0.000111725     2000
   9910000   95.970101     -922.89595      0             -766.10777     -9.1062552    
SHAKE stats (type/ave/delta/count) on step 9920000
Bond:   1   1         1.06702e-06     4000
Angle:  1   109.47    8.67749e-05     2000
   9920000   95.128438     -927.34981      0             -771.93668     -6.5431716    
SHAKE stats (type/ave/delta/count) on step 9930000
Bond:   1   1         1.58686e-06     4000
Angle:  1   109.47    0.000124951     2000
   9930000   94.963723     -927.14054      0             -771.99651     -6.1748154    
SHAKE stats (type/ave/delta/count) on step 9940000
Bond:   1   1         1.18931e-06     4000
Angle:  1   109.47    9.14011e-05     2000
   9940000   95.842892     -930.04121      0             -773.46086     -13.225291    
SHAKE stats (type/ave/delta/count) on step 9950000
Bond:   1   1         1.32613e-06     4000
Angle:  1   109.47    0.00011858      2000
   9950000   95.451506     -921.70163      0             -765.7607      -10.671857    
SHAKE stats (type/ave/delta/count) on step 9960000
Bond:   1   1         1.3203e-06      4000
Angle:  1   109.47    9.28938e-05     2000
   9960000   93.9144       -928.4324       0             -775.00267     -5.8685108    
SHAKE stats (type/ave/delta/count) on step 9970000
Bond:   1   1         1.32612e-06     4000
Angle:  1   109.47    9.20099e-05     2000
   9970000   94.332634     -925.40947      0             -771.29646     -3.9313157    
SHAKE stats (type/ave/delta/count) on step 9980000
Bond:   1   1         1.38128e-06     4000
Angle:  1   109.47    0.000111228     2000
   9980000   94.124121     -921.01401      0             -767.24165     -11.467669    
SHAKE stats (type/ave/delta/count) on step 9990000
Bond:   1   1         1.20919e-06     4000
Angle:  1   109.47    9.10056e-05     2000
   9990000   94.453168     -926.12809      0             -771.81815     -14.045385    
SHAKE stats (type/ave/delta/count) on step 10000000
Bond:   1   1         1.62119e-06     4000
Angle:  1   109.47    0.00012575      2000
  10000000   95.731798     -930.66893      0             -774.27008     -3.7108402    
Loop time of 61319.8 on 640 procs for 10000000 steps with 14640 atoms

Performance: 14.090 ns/day, 1.703 hours/ns, 163.080 timesteps/s, 2.387 Matom-step/s
100.0% CPU use with 640 MPI tasks x 1 OpenMP threads

MPI task timing breakdown:
Section |  min time  |  avg time  |  max time  |%varavg| %total
---------------------------------------------------------------
Pair    | 0.91928    | 501.9      | 8208.5     |6004.4 |  0.82
Bond    | 0.87578    | 1.6142     | 3.122      |  38.4 |  0.00
Kspace  | 46041      | 54369      | 55467      | 591.3 | 88.66
Neigh   | 2152.8     | 2210.6     | 2241       |  59.4 |  3.61
Comm    | 36.521     | 461.28     | 2439.3     |2631.5 |  0.75
Output  | 0.38181    | 0.39386    | 0.39997    |   0.6 |  0.00
Modify  | 2052.4     | 3549.1     | 4685.6     | 888.8 |  5.79
Other   |            | 225.8      |            |       |  0.37

Nlocal:         22.875 ave         598 max           0 min
Histogram: 554 59 10 4 2 2 1 0 1 7
Nghost:        224.908 ave        3402 max           0 min
Histogram: 463 119 19 16 10 6 3 2 0 2
Neighs:        3170.29 ave      165691 max           0 min
Histogram: 621 6 3 1 1 1 1 1 3 2

Total # of neighbors = 2028988
Ave neighs/atom = 138.59208
Ave special neighs/atom = 0.81967213
Neighbor list builds = 501124
Dangerous builds = 0

write_restart nvt_equi.restart.*
System init for write_restart ...
PPPM initialization ...
  using 12-bit tables for long-range coulomb (src/kspace.cpp:342)
  G vector (1/distance) = 0.28515695
  grid = 80 80 80
  stencil order = 5
  estimated absolute RMS force accuracy = 0.00017907316
  estimated relative force accuracy = 1.2435943e-05
  using double precision KISS FFT
  3d grid and FFT values/proc = 4335 960
Generated 0 of 3 mixed pair_coeff terms from geometric mixing rule
write_data nvt_equi_final.lammps-data pair ij
System init for write_data ...
PPPM initialization ...
  using 12-bit tables for long-range coulomb (src/kspace.cpp:342)
  G vector (1/distance) = 0.28515695
  grid = 80 80 80
  stencil order = 5
  estimated absolute RMS force accuracy = 0.00017907316
  estimated relative force accuracy = 1.2435943e-05
  using double precision KISS FFT
  3d grid and FFT values/proc = 4335 960
Generated 0 of 3 mixed pair_coeff terms from geometric mixing rule

Total wall time: 17:02:50
