LAMMPS data file via write_data, version 4 Feb 2025, timestep = 50000, units = metal

17640 atoms
3 atom types

0 154.00799999999998 xlo xhi
0 148.2 ylo yhi
0 151.07609208607428 zlo zhi

Masses

1 12.01099999691024
2 1.007999999740698
3 15.99899999588435

Atoms # full

7960 0 1 0 2.539938799379347 3.3466324177081113 24.74949643581048 1 0 0
7961 0 1 0 3.9737049638948965 3.3650816620655704 24.77248021466184 1 0 0
7958 0 1 0 2.5438698330416343 0.9094943035068749 24.86211472969133 1 0 0
7959 0 1 0 1.8179642077605618 2.144200564346142 24.849311758312577 1 0 0
7950 0 1 0 0.39307344807649724 2.149517041518106 24.76290593998784 1 0 0
7969 0 1 0 3.927939549347263 0.9103350898634245 24.85570359988476 1 0 0
7970 0 1 0 4.678684200492959 2.110203085840891 24.86456507286897 1 0 0
8002 0 1 0 0.3650662567321073 4.647411948289692 24.618960138779762 1 0 0
8022 0 1 0 4.648844074216561 4.603918297500558 24.64194137345692 1 0 0
7978 0 1 0 6.781556895691891 0.9165814393683194 25.17584782038728 1 0 0
7929 0 1 0 8.254838107128572 0.998034661070813 25.365358846890334 1 0 0
7921 0 1 0 8.223391818906897 3.396909504100078 25.09723477766771 1 0 0
7979 0 1 0 6.104310598842176 2.1916059976689266 25.02846921611182 1 0 0
10 0 1 0 8.936303314200842 2.1927807203344387 25.25003402510173 0 0 0
7980 0 1 0 6.82683607238596 3.404339813954379 24.95492510106852 1 0 0
62 0 1 0 8.908289249694887 4.659918904177187 25.187355172486903 0 0 0
8011 0 1 0 1.8055537271668447 4.597150280195717 24.869173038814974 1 0 0
8012 0 1 0 2.5251497906391855 5.840990012420314 24.852313372860568 1 0 0
8023 0 1 0 3.9173892279781852 5.87678185517601 24.77794090082465 1 0 0
8013 0 1 0 1.8271065576460193 7.070187343959273 24.86451704102393 1 0 0
8004 0 1 0 0.3983366803689331 7.074495950328982 24.68906538441043 1 0 0
8025 0 1 0 3.918594320895399 8.318112350331361 24.829599342625148 1 0 0
8014 0 1 0 2.5084060541696864 8.347227514104397 24.845528817121426 1 0 0
8024 0 1 0 4.613211738397448 7.112540925541853 24.729259619259015 1 0 0
8031 0 1 0 6.0608015991232635 4.686991611085207 24.78508961136791 1 0 0
7983 0 1 0 8.188529028455807 5.9179799642822735 25.163654983146106 1 0 0
8032 0 1 0 6.73481805154079 5.954619515002171 24.851353901162945 1 0 0
8033 0 1 0 6.0585343626368635 7.205707096785458 24.70468812009876 1 0 0
64 0 1 0 8.920742556540315 7.133742826244291 25.128258105933114 0 0 0
7985 0 1 0 8.135691274417448 8.364644243034789 25.134146734600126 1 0 0
8034 0 1 0 6.734119680189366 8.384281737499478 24.98086458808752 1 0 0
8006 0 1 0 0.31203676851205614 9.558148681672 24.728002763777944 1 0 0
8016 0 1 0 2.451834034007864 10.787408025543813 24.946984694147925 1 0 0
8015 0 1 0 1.7236435175347755 9.549666355711812 24.888748391489564 1 0 0
8017 0 1 0 1.7169787020317981 11.992982215582925 24.900718113139476 1 0 0
8018 0 1 0 2.4798156079247438 13.253320295864397 24.998134362498387 1 0 0
8008 0 1 0 0.33809324231269594 11.980295397663372 24.97992445886398 1 0 0
8027 0 1 0 3.894218182676945 10.860790635633117 24.945594632536785 1 0 0
8029 0 1 0 3.8784572465022062 13.280917576428326 25.0143600727739 1 0 0
8026 0 1 0 4.628330347398974 9.61095199981737 24.956120665051788 1 0 0
8028 0 1 0 4.606046076393668 12.085581756073625 25.028599195557845 1 0 0
8035 0 1 0 6.070318485988073 9.63302352218193 25.03875191812205 1 0 0
68 0 1 0 8.903144192804294 12.080804208391328 25.358598355714708 0 0 0
7987 0 1 0 8.241544605591024 10.886887291507668 25.202353085688596 1 0 0
7989 0 1 0 8.146692548243179 13.340183652107141 25.320456307173547 1 0 0
8036 0 1 0 6.761708853612472 10.852524115575848 25.179326415926845 1 0 0
8037 0 1 0 6.024938934906475 12.006988634019597 25.097872523412715 1 0 0
8038 0 1 0 6.7233468250094806 13.312192770718491 25.18444502546791 1 0 0
66 0 1 0 8.914111400855708 9.660682473145188 25.163475814216216 0 0 0
8083 0 1 0 3.977380384584849 18.249244710898513 25.050400764951867 1 0 0
8021 0 1 0 3.9464376925995386 15.754993435030594 25.107214738867516 1 0 0
8062 0 1 0 0.3557735467488232 16.931872078859445 24.9147205167282 1 0 0
8010 0 1 0 0.3221045473050506 14.465420769511539 24.96213649548442 1 0 0
8072 0 1 0 2.471347613278533 18.169754870860885 24.97765275344015 1 0 0
8019 0 1 0 1.7476779600692174 14.470363221781968 25.157789505411795 1 0 0
8020 0 1 0 2.4884895540308127 15.760598512198003 25.137488168220116 1 0 0
8071 0 1 0 1.773721596663539 16.99756298946989 25.072720006134766 1 0 0
8030 0 1 0 4.591946415087768 14.478423551603928 25.059850096180863 1 0 0
8082 0 1 0 4.669596579305266 17.026175180042458 25.003553850248476 1 0 0
8040 0 1 0 6.808297705112123 15.689658977926117 25.12561995754371 1 0 0
8092 0 1 0 6.8242325404399065 18.20201790303667 25.214648147778412 1 0 0
8091 0 1 0 6.101534408684412 16.96925754389616 25.049162284888954 1 0 0
70 0 1 0 8.928708985381775 14.503927541895385 25.479664769424502 0 0 0
7981 0 1 0 8.224386073582458 15.74490746088531 25.364046050613016 1 0 0
8039 0 1 0 6.034967818077289 14.52349528603225 25.06219221695643 1 0 0
8043 0 1 0 8.262490046843086 18.21673407432336 25.287561293284902 1 0 0
122 0 1 0 8.934081887267979 16.981045161995247 25.320622876771058 0 0 0
8085 0 1 0 3.9879847893179847 20.66990808711857 25.03235711786114 1 0 0
8087 0 1 0 3.9226217288558236 23.092751167003566 25.121896897861227 1 0 0
8066 0 1 0 0.37676668211925435 21.882808110167105 24.854059411120264 1 0 0
8075 0 1 0 1.8451787864812639 21.901569172180654 24.882880155340917 1 0 0
8076 0 1 0 2.515208325574 23.13150564305085 24.944505963908345 1 0 0
8064 0 1 0 0.3468959544402516 19.41220234034034 24.770866458908543 1 0 0
8073 0 1 0 1.788478301704412 19.423242600320144 24.851380292390367 1 0 0
8074 0 1 0 2.605865627676231 20.657225017416696 24.877483613663397 1 0 0
8086 0 1 0 4.699770952370471 21.909654405196868 25.103511527691406 1 0 0
8084 0 1 0 4.672772447857384 19.460795627036905 25.091790729077864 1 0 0
126 0 1 0 8.909075285249491 21.85777732588896 25.41069641272022 0 0 0
8095 0 1 0 6.109485571539396 21.95231186832478 25.18842747762489 1 0 0
8045 0 1 0 8.17476889330672 20.67429244381682 25.34670309236351 1 0 0
8094 0 1 0 6.786709116495855 20.680720263016436 25.221059893824194 1 0 0
8093 0 1 0 6.096843406500759 19.44648039901739 25.2023836222224 1 0 0
124 0 1 0 8.96951646432515 19.44642778516704 25.385239879488093 0 0 0
8096 0 1 0 6.8254925580240515 23.191833953686594 25.287021847658707 1 0 0
8047 0 1 0 8.24414979280865 23.157735240212958 25.443514406653964 1 0 0
8090 0 1 0 4.671876837474311 26.86400578715395 25.38132340337626 1 0 0
8089 0 1 0 3.948337921532708 25.610585856045848 25.248984487854596 1 0 0
8078 0 1 0 2.5071516198535297 25.585630897160136 25.144726224944556 1 0 0
8070 0 1 0 0.38569251990635683 26.78009486918217 25.035426769914096 1 0 0
8079 0 1 0 1.7721268445682106 26.81185318640023 25.13145594940695 1 0 0
8077 0 1 0 1.8000915943420364 24.36388468325118 24.985524127617907 1 0 0
8068 0 1 0 0.4099998507798272 24.328089023626134 24.875600062004157 1 0 0
8088 0 1 0 4.680502763001136 24.404484404273017 25.110474485787524 1 0 0
130 0 1 0 8.932518584223113 26.856505640214532 25.46514070142833 0 0 0
8049 0 1 0 8.234915321461012 25.64599334242472 25.38109470786836 1 0 0
8099 0 1 0 6.083786866309086 26.88374348571503 25.34466651286518 1 0 0
8097 0 1 0 6.092554798078371 24.444775919257022 25.142235251281953 1 0 0
8098 0 1 0 6.793583671434084 25.65081095470518 25.275574658574428 1 0 0
128 0 1 0 8.968096866879712 24.366594605370555 25.364384951096707 0 0 0
8124 0 1 0 0.3334474643696171 31.746556007497883 24.910621794576173 1 0 0
8143 0 1 0 3.8538116352729235 30.51444342910451 25.064352163677224 1 0 0
8122 0 1 0 0.28928673746136635 29.268215163045337 24.961547167946062 1 0 0
8131 0 1 0 1.7721468085132757 29.266892564304065 25.161646668809205 1 0 0
8133 0 1 0 1.7044092888393232 31.76026291885192 24.949874016221234 1 0 0
8132 0 1 0 2.4634325096275416 30.484093127774237 25.062536970114095 1 0 0
8080 0 1 0 2.482738309313402 28.08107603741392 25.199874034794636 1 0 0
8081 0 1 0 3.936949407991029 28.062427631907628 25.213151297845048 1 0 0
8142 0 1 0 4.620383212723842 29.294484366863983 25.094218599858994 1 0 0
8144 0 1 0 4.586879807062642 31.725910496151325 24.972749158453873 1 0 0
184 0 1 0 8.952472220871206 31.759463200730362 25.349191259307496 0 0 0
8153 0 1 0 6.051757680272492 31.742930917978036 25.068710626732155 1 0 0
8151 0 1 0 6.060903013810337 29.36083957037439 25.345694641978785 1 0 0
8103 0 1 0 8.181352677324083 30.53530111964207 25.45059897418749 1 0 0
8152 0 1 0 6.773966762966028 30.575184149384054 25.277973903874784 1 0 0
8100 0 1 0 6.813733980612262 28.12928464624122 25.371655302760477 1 0 0
182 0 1 0 8.906416843757953 29.30498763963146 25.468356657648123 0 0 0
8041 0 1 0 8.21135669426199 28.06680389938055 25.534470093655624 1 0 0
8137 0 1 0 1.811516391659988 36.66562599489229 24.35366615903401 1 0 0
8128 0 1 0 0.38925188662512245 36.67384927638528 24.0956050090537 1 0 0
8136 0 1 0 2.560516738515348 35.46531290896584 24.540283131210828 1 0 0
8126 0 1 0 0.3885600218871965 34.21629122752911 24.468657039895124 1 0 0
8134 0 1 0 2.496336034346815 32.98564736529591 24.82524078111113 1 0 0
8135 0 1 0 1.8262968563405653 34.24853823429714 24.657660019227993 1 0 0
8147 0 1 0 3.9721671685861706 35.44445116885151 24.642930935638546 1 0 0
8146 0 1 0 4.641149043731722 34.19969513336429 24.805694962492776 1 0 0
8148 0 1 0 4.632213989196595 36.69402598873587 24.577547924125966 1 0 0
8145 0 1 0 3.928494266052834 32.99803951579396 24.877894174338678 1 0 0
8156 0 1 0 6.766690129401976 35.49107594690307 24.78076001723563 1 0 0
8157 0 1 0 6.005876890742473 36.70445327280265 24.584067272804674 1 0 0
8155 0 1 0 6.094126477607768 34.21765436722939 24.84168151438602 1 0 0
8154 0 1 0 6.745016144585509 33.01237318905599 25.00779158912135 1 0 0
188 0 1 0 8.893087793743154 36.69689640760313 24.718042900056727 0 0 0
8105 0 1 0 8.217329068909889 32.961293366240184 25.126723806548974 1 0 0
8107 0 1 0 8.22262316470523 35.44068011361942 24.814534276056236 1 0 0
186 0 1 0 8.930639040487446 34.195498561882026 24.96587232903072 0 0 0
8182 0 1 0 0.31069048975481484 41.596250398303894 24.067148104938152 1 0 0
8184 0 1 0 0.3136213841385754 44.052106768536724 24.26309874535662 1 0 0
8186 0 1 0 0.3489559835637854 46.56521430964069 24.420625639881738 1 0 0
8190 0 1 0 0.34287487014519674 51.49394152561839 24.189722133888647 1 0 0
8140 0 1 0 2.4538888746546332 40.39574675814685 24.08611441329562 1 0 0
8130 0 1 0 0.35318626653748975 39.12597796029075 23.915268080351428 1 0 0
8191 0 1 0 1.7246677621019157 41.64897154113118 24.048311277896605 1 0 0
8138 0 1 0 2.519091967457894 37.9051350045678 24.272943826004614 1 0 0
8139 0 1 0 1.726660236978986 39.092185179790704 24.060226221882303 1 0 0
8141 0 1 0 3.9063992357500408 40.39481139503395 24.11949394529693 1 0 0
8149 0 1 0 3.9180747459223113 37.887229919790904 24.401964871845927 1 0 0
8150 0 1 0 4.647784280641154 39.145564507875754 24.255922716410915 1 0 0
8202 0 1 0 4.628515224074125 41.62804991974257 24.07773193644559 1 0 0
8160 0 1 0 6.740035880421332 40.37005009056237 24.300270904907684 1 0 0
8211 0 1 0 6.036906835370669 41.6504317003451 24.19892235173459 1 0 0
190 0 1 0 8.903346726041605 39.11043879005118 24.409601865620992 0 0 0
8101 0 1 0 8.166266616223615 40.356892494305974 24.37844727188906 1 0 0
242 0 1 0 8.847757114161025 41.622594793926574 24.305508162729826 0 0 0
8159 0 1 0 6.063898258930868 39.16494999978264 24.32311731583759 1 0 0
8158 0 1 0 6.725757572706592 37.93217138474466 24.43938323224325 1 0 0
8109 0 1 0 8.193002442202765 37.91359289902309 24.510472793681643 1 0 0
8205 0 1 0 3.909110832723731 45.3411843841577 24.31336916936666 1 0 0
8194 0 1 0 2.5038122639557665 45.380028902052786 24.271312053514094 1 0 0
8203 0 1 0 3.875097951985229 42.85743528941948 23.989406156826618 1 0 0
8204 0 1 0 4.588064186118498 44.10493777999374 24.15136580340644 1 0 0
8193 0 1 0 1.759418886233153 44.142758680129006 24.11737915827865 1 0 0
8192 0 1 0 2.4584137508074644 42.869505393430586 24.096513654525552 1 0 0
244 0 1 0 8.911916141335645 44.15544371744827 24.153703642529095 0 0 0
8165 0 1 0 8.194621808283978 45.352726210680785 24.106150099614307 1 0 0
8212 0 1 0 6.728902427825586 42.901395763829434 24.249146388338527 1 0 0
8213 0 1 0 6.0120206165233245 44.128929537010734 24.152318865304597 1 0 0
8214 0 1 0 6.7716677775403635 45.35760769535219 24.165460653117833 1 0 0
8163 0 1 0 8.123675937342252 42.86617280097861 24.234750439243335 1 0 0
8197 0 1 0 1.7376379067999346 49.00626055460452 24.254462007399006 1 0 0
8198 0 1 0 2.4193855271433136 50.2367409958371 24.040850909227984 1 0 0
8209 0 1 0 3.8825258391570197 50.23418603167508 23.9827146709172 1 0 0
8208 0 1 0 4.631430481827021 49.037232363328485 24.138127792223266 1 0 0
8196 0 1 0 2.518348333901582 47.8221467502949 24.37637201021184 1 0 0
8207 0 1 0 3.910650564200313 47.814482966658865 24.354199155103903 1 0 0
8195 0 1 0 1.795275613044897 46.561226997007346 24.423018441474564 1 0 0
8188 0 1 0 0.3510804386967082 49.01700788951573 24.269429427392872 1 0 0
8206 0 1 0 4.6467751148629635 46.54336284200869 24.38334201050226 1 0 0
248 0 1 0 8.928946656103193 49.061970684041285 24.161410328943635 0 0 0
8167 0 1 0 8.22149788116905 47.81796538130866 24.072950749254023 1 0 0
8169 0 1 0 8.245940706646422 50.29547511355469 24.04932402615467 1 0 0
8216 0 1 0 6.778680347872317 47.82569687779723 24.15868986467496 1 0 0
8217 0 1 0 6.063343249138738 49.013403939273594 24.111088277473286 1 0 0
8218 0 1 0 6.814488930982096 50.26826045115597 23.987871624671513 1 0 0
246 0 1 0 8.92785786418105 46.572734459092835 24.114808420279175 0 0 0
8215 0 1 0 6.033356278685919 46.58387452786634 24.308377366355685 1 0 0
8263 0 1 0 3.9666912550567783 55.21818797308756 23.990320484470832 1 0 0
8251 0 1 0 1.8024530888768058 54.01807707951283 24.080207136908754 1 0 0
8252 0 1 0 2.508482968319933 55.264020361397485 23.964101632175094 1 0 0
8242 0 1 0 0.33527750976961934 53.9577490179282 24.026876761148653 1 0 0
8199 0 1 0 1.7639703892833294 51.49750302872683 24.16577791030394 1 0 0
8200 0 1 0 2.5552489947413077 52.74481342421392 24.085440406306034 1 0 0
8201 0 1 0 3.964054706851939 52.72925434209626 24.00564556751291 1 0 0
8262 0 1 0 4.681279560141268 53.95583562879453 24.040233755265852 1 0 0
8210 0 1 0 4.650956197590884 51.47976250598839 23.95860973406058 1 0 0
8223 0 1 0 8.242397602996785 55.190462797356176 23.878781418787707 1 0 0
8272 0 1 0 6.786436546360848 55.21418871802357 23.839549034267915 1 0 0
302 0 1 0 8.990189171061228 53.9669360773841 23.894529960554983 0 0 0
8161 0 1 0 8.170400389240008 52.77558061065506 23.85078688373104 1 0 0
250 0 1 0 8.903802285061778 51.564923063175264 23.996042460244816 0 0 0
8271 0 1 0 6.070533142984183 53.99312889426417 23.931397094653164 1 0 0
8220 0 1 0 6.760355003641402 52.744705933670716 23.95850609041902 1 0 0
8219 0 1 0 6.0672927731414035 51.4965737654146 24.01926601817646 1 0 0
8264 0 1 0 4.659397787350555 56.466091188252435 23.961882890006194 1 0 0
8265 0 1 0 3.9189510061692006 57.67011082941871 24.011559709926605 1 0 0
8266 0 1 0 4.62755409090663 58.939556956648005 24.05481164699134 1 0 0
8254 0 1 0 2.5084789108293464 57.686262223487965 23.993819165893186 1 0 0
8246 0 1 0 0.3595832855026446 58.95650749526943 24.001459247669985 1 0 0
8255 0 1 0 1.8057891026411421 58.94903305042303 23.92182902819024 1 0 0
8267 0 1 0 3.905343292480885 60.16606165809556 24.03459904617689 1 0 0
8256 0 1 0 2.4678634692795094 60.15155787160551 23.891185746350544 1 0 0
306 0 1 0 8.995342991715978 58.91837874258886 24.022581587878808 0 0 0
8275 0 1 0 6.0483368501871375 58.938892173101614 24.030190719855252 1 0 0
8276 0 1 0 6.785913286279201 60.18813041580474 24.070973347173904 1 0 0
8227 0 1 0 8.279153867112948 60.12838472424138 24.020063368912467 1 0 0
8258 0 1 0 2.4740023401665536 62.6026304985837 23.86970207818323 1 0 0
8269 0 1 0 3.9134993832241785 62.618033761034724 23.78678889009536 1 0 0
8268 0 1 0 4.660582474606654 61.38969098510987 23.970548680839837 1 0 0
8270 0 1 0 4.6479174524872935 63.83071943296955 23.71922503810371 1 0 0
8257 0 1 0 1.787822468562925 61.37611073372836 23.823823775019992 1 0 0
8259 0 1 0 1.7511105275044596 63.83550368333997 23.83494991286276 1 0 0
8248 0 1 0 0.35848456352617164 61.411304321794844 23.908358812276276 1 0 0
8277 0 1 0 6.098678058187476 61.44553647652492 24.001685763606336 1 0 0
308 0 1 0 8.95928779628948 61.39785275844699 24.042289489273713 0 0 0
8229 0 1 0 8.237255961953865 62.65194076344362 23.9756850822097 1 0 0
8278 0 1 0 6.809912718815797 62.67055934786402 24.00607076809061 1 0 0
310 0 1 0 9.0033024428023 63.872547369891855 24.000686523205133 0 0 0
8279 0 1 0 6.069896333675108 63.89754224742125 23.859142731588694 1 0 0
8261 0 1 0 3.9551401931117667 65.04776249213471 23.563246323723472 1 0 0
8312 0 1 0 2.6061573200825023 67.51114467816119 23.40991018636136 1 0 0
8323 0 1 0 4.01765367934808 67.45965360764522 23.41010418320698 1 0 0
8322 0 1 0 4.692391353652412 66.29213651094587 23.601739089899752 1 0 0
8324 0 1 0 4.650914234914392 68.73472925549783 23.273072730028286 1 0 0
8304 0 1 0 0.37160923100455284 68.78015382126563 23.36158876072727 1 0 0
8302 0 1 0 0.3175308045740308 66.31225439634979 23.627211718710658 1 0 0
8260 0 1 0 2.4660636500873867 65.06392360107452 23.605823542269952 1 0 0
8313 0 1 0 1.8362841160467689 68.82165623763349 23.348422411318815 1 0 0
362 0 1 0 8.958277006309524 66.35522301107356 23.74371826555927 0 0 0
364 0 1 0 8.98006548625384 68.82898710040736 23.43659351827876 0 0 0
8221 0 1 0 8.260834344428044 65.11556707822979 23.762039546544138 1 0 0
8280 0 1 0 6.8383741381405745 65.1195693208771 23.753497483074028 1 0 0
8283 0 1 0 8.232183513803866 67.61440453779971 23.60704499554529 1 0 0
8331 0 1 0 6.094905761520023 66.32562114370624 23.6561130455855 1 0 0
8332 0 1 0 6.791974623757398 67.56904019937537 23.560434463674284 1 0 0
8333 0 1 0 6.057001291022575 68.78850742471808 23.395702464052416 1 0 0
8308 0 1 0 0.3303308810767114 73.68953543846357 23.286895456629775 1 0 0
8316 0 1 0 2.4915008490459742 72.48710029046505 23.017313353419997 1 0 0
8317 0 1 0 1.7799131857369623 73.7363625093757 23.05557668457158 1 0 0
8326 0 1 0 4.669890433780455 71.20754556245308 23.085895004774443 1 0 0
8306 0 1 0 0.395536503974864 71.22075865644575 23.14220610193135 1 0 0
8314 0 1 0 2.5493818349095387 70.04823897707779 23.254273472236328 1 0 0
8315 0 1 0 1.80772847976421 71.25825669012745 23.180985536964606 1 0 0
8325 0 1 0 3.955682001079122 69.98073498756325 23.113047095408415 1 0 0
8327 0 1 0 3.9654409459550606 72.45988855022262 23.08390036429867 1 0 0
8328 0 1 0 4.694912975003427 73.7123025908931 22.94137804640409 1 0 0
8337 0 1 0 6.14257249830221 73.74391978921251 23.03493448457636 1 0 0
8334 0 1 0 6.763547439335348 70.05013683909826 23.273854555914728 1 0 0
8336 0 1 0 6.82238496982163 72.52509389934607 23.11951327699644 1 0 0
366 0 1 0 8.923226185758777 71.23630354384868 23.199865977206663 0 0 0
8285 0 1 0 8.221457748560265 70.01802297792385 23.237812869896025 1 0 0
8287 0 1 0 8.223514434263219 72.54974519589108 23.207441001798443 1 0 0
8335 0 1 0 6.082423704488936 71.27647566335342 23.119230268585305 1 0 0
368 0 1 0 8.910055295270972 73.79326049269449 23.20808302951638 0 0 0
8253 0 1 0 1.786401066603239 56.46233807832299 23.970651799274773 1 0 0
8244 0 1 0 0.33862977888619267 56.46158320641398 24.046180921672164 1 0 0
8273 0 1 0 6.095433713249746 56.48826416506194 23.85361036619991 1 0 0
304 0 1 0 8.947345583550423 56.454380270952925 23.901560620267844 0 0 0
8225 0 1 0 8.25241600561953 57.712557582834265 23.947932605498607 1 0 0
8274 0 1 0 6.838244512249957 57.72083318991417 23.91430520562644 1 0 0
8250 0 1 0 0.3269075458124709 63.86860525097917 23.862979914629562 1 0 0
8311 0 1 0 1.8384830944895976 66.3105496140759 23.566306680531532 1 0 0
8329 0 1 0 3.9361371578877766 74.89176463913309 22.926167012227765 1 0 0
8318 0 1 0 2.506274736342089 74.96886442215437 22.96750712300572 1 0 0
8310 0 1 0 0.38407062520941243 76.22415810731721 23.275297565086127 1 0 0
8319 0 1 0 1.7645746806488507 76.23403984433249 23.14492591838805 1 0 0
8330 0 1 0 4.657984022700063 76.16636916713261 23.012796874876354 1 0 0
8320 0 1 0 2.561142446462864 77.43610658535593 23.225518258347865 1 0 0
8321 0 1 0 3.9874076940346024 77.41358334123098 23.125081511589663 1 0 0
8362 0 1 0 0.42835899011851397 78.66148194737968 23.453866472541126 1 0 0
8281 0 1 0 8.230885678051104 77.45513733894524 23.218785682657973 1 0 0
8340 0 1 0 6.802359748002494 77.4350763439301 23.161216024031265 1 0 0
8339 0 1 0 6.105702887055724 76.21336521136921 23.129593672719643 1 0 0
370 0 1 0 8.92754202626172 76.19279243423888 23.123047715999633 0 0 0
8289 0 1 0 8.221633753099919 74.98345768732555 23.128386839138305 1 0 0
8338 0 1 0 6.793289834318169 74.99246171783244 23.12579021831203 1 0 0
8373 0 1 0 1.8434527889963277 81.11987520204303 23.384620359858168 1 0 0
8364 0 1 0 0.4169579402900742 81.12888253971848 23.593661284968455 1 0 0
8374 0 1 0 2.5574712109526967 82.33898036032028 23.454188955801374 1 0 0
8371 0 1 0 1.837110761236069 78.62430082213278 23.372603238624755 1 0 0
8382 0 1 0 4.6858187441327 78.65984602658334 23.254345596220283 1 0 0
8383 0 1 0 3.9734959687164912 79.90629319677286 23.233006709130844 1 0 0
8384 0 1 0 4.698221512871229 81.15950058850166 23.32726281848755 1 0 0
8372 0 1 0 2.5551759809899997 79.90422135025656 23.345594903486205 1 0 0
8385 0 1 0 4.007356243819158 82.41139995048465 23.363226536229302 1 0 0
422 0 1 0 8.973346108700756 78.68640309948601 23.200221406555865 0 0 0
8391 0 1 0 6.116790748271903 78.67080487287097 23.161074377660302 1 0 0
424 0 1 0 9.000195139506225 81.18556192330473 23.25521669842328 0 0 0
8343 0 1 0 8.290044163077855 79.95613340364716 23.095434446894547 1 0 0
8392 0 1 0 6.844668252825723 79.90775800880837 23.16007087442307 1 0 0
8393 0 1 0 6.127683695294621 81.14999398473199 23.201337506430725 1 0 0
8394 0 1 0 6.8045717765442095 82.38871374593579 23.303207379285006 1 0 0
8345 0 1 0 8.233502811287345 82.3871327197028 23.33877501756642 1 0 0
8375 0 1 0 1.851558514729092 83.5406510462037 23.686881906129702 1 0 0
8366 0 1 0 0.41997804467474853 83.61198485710835 23.844398838958785 1 0 0
8377 0 1 0 1.8781629637225645 86.05691616480091 23.834109298446293 1 0 0
8378 0 1 0 2.5814178221252266 87.34299113873203 23.845570978545112 1 0 0
8368 0 1 0 0.4564965315885652 86.04370298787161 23.944237022728814 1 0 0
8376 0 1 0 2.592239615758656 84.80241509730352 23.773905746985978 1 0 0
8386 0 1 0 4.6789308857269205 83.63218186097643 23.512114355005462 1 0 0
8387 0 1 0 3.972629996655454 84.84628645245765 23.69379921022931 1 0 0
8389 0 1 0 4.019459908827415 87.34245499047891 23.869455353807115 1 0 0
8388 0 1 0 4.730518139614578 86.09701843947202 23.698705089303527 1 0 0
426 0 1 0 8.966578954664254 83.61168925873945 23.449600237477366 0 0 0
428 0 1 0 8.962358753665148 86.08209193038677 23.59764587214816 0 0 0
8347 0 1 0 8.265479950975331 84.8538918891644 23.448438165890696 1 0 0
8395 0 1 0 6.127037286876332 83.6269334247672 23.466000877716194 1 0 0
8396 0 1 0 6.845223716749379 84.86622788772517 23.54356572087268 1 0 0
8349 0 1 0 8.26744190605724 87.35786333521541 23.756626785151663 1 0 0
8397 0 1 0 6.134180056334331 86.11824709297748 23.576577762769137 1 0 0
8398 0 1 0 6.836584030608354 87.37961951848196 23.793985245046443 1 0 0
8379 0 1 0 1.8284896549235377 88.52088412049962 23.99999369581957 1 0 0
8370 0 1 0 0.4239718485311386 88.52708718701679 24.11232701654625 1 0 0
8380 0 1 0 2.531260714554979 89.77903386672297 24.283849375944065 1 0 0
8381 0 1 0 3.983793760058873 89.75834178901263 24.35565476378856 1 0 0
8390 0 1 0 4.759615744169191 88.5595057210419 24.08195184684834 1 0 0
8399 0 1 0 6.145429352451933 88.58033009646147 24.126386051935 1 0 0
8432 0 1 0 2.5941447787945022 92.2084790520976 24.581840083319992 1 0 0
8422 0 1 0 0.4881679826492422 91.01422147888273 24.334149038046046 1 0 0
8431 0 1 0 1.906831217947876 90.9863134962367 24.374157322439256 1 0 0
8443 0 1 0 4.009324444924311 92.22004456465206 24.665200376675795 1 0 0
8442 0 1 0 4.648402371781706 90.99799658791825 24.55777618462064 1 0 0
8341 0 1 0 8.291598562918594 89.77474925331758 24.28545056639891 1 0 0
8451 0 1 0 6.122765298707116 90.96942706000297 24.552963072253146 1 0 0
8452 0 1 0 6.83233257159382 92.18773950808897 24.607291926048934 1 0 0
8400 0 1 0 6.854693055920346 89.77076154159802 24.348324898145023 1 0 0
482 0 1 0 9.049360624057678 90.94928918562815 24.390098587036526 0 0 0
430 0 1 0 9.002769875341896 88.58658627451779 24.02315991665263 0 0 0
8403 0 1 0 8.307391270677517 92.21370947377201 24.538030733521065 1 0 0
8433 0 1 0 1.8666895215334431 93.45628304509596 24.757756714610924 1 0 0
8424 0 1 0 0.42437187791275777 93.47317382973445 24.719170075629627 1 0 0
8444 0 1 0 4.703283146479262 93.46059173912636 24.822342300642685 1 0 0
8445 0 1 0 3.928527041053721 94.63190666866767 24.98753114736138 1 0 0
8434 0 1 0 2.5400215928253194 94.62348914292733 25.006026984984125 1 0 0
8426 0 1 0 0.4284629606985575 95.94936515055866 24.853945884194193 1 0 0
8435 0 1 0 1.8343525558972715 95.91470203835279 25.023313624051266 1 0 0
8446 0 1 0 4.672116691603662 95.88050599574393 25.03865697417004 1 0 0
8436 0 1 0 2.5440714470144115 97.17191499847587 24.994543540418384 1 0 0
486 0 1 0 8.959628430465793 95.90776598436712 24.935198953307417 0 0 0
8454 0 1 0 6.812189869312944 94.67105319504171 24.99907074517572 1 0 0
8455 0 1 0 6.075840646421974 95.91518000845778 25.089130817309997 1 0 0
484 0 1 0 8.946217545957639 93.47122652653245 24.704184060326256 0 0 0
8405 0 1 0 8.199276577122667 94.71455118047936 24.94326761214923 1 0 0
8453 0 1 0 6.149679227445668 93.42049907427241 24.869350752929485 1 0 0
8407 0 1 0 8.256367991456127 97.12223080998825 25.116507562784825 1 0 0
8456 0 1 0 6.834093990683403 97.14478762912795 25.17251027515249 1 0 0
8447 0 1 0 3.9971191709130762 97.14752241390974 24.97412435774746 1 0 0
8449 0 1 0 3.9628299281853168 99.62597298010638 25.235544045150974 1 0 0
8438 0 1 0 2.52617379155419 99.63644282958224 25.235239483128584 1 0 0
8439 0 1 0 1.8519007785666028 100.85763594106558 25.405967161783007 1 0 0
8428 0 1 0 0.42124989807608254 98.46260257631913 24.981719220938718 1 0 0
8437 0 1 0 1.8231864521088725 98.41028406598592 25.04143462138952 1 0 0
8430 0 1 0 0.42031358545633074 100.90882279236551 25.28767912122149 1 0 0
8448 0 1 0 4.680935658571515 98.41132274284688 25.168418345785938 1 0 0
8450 0 1 0 4.702499606040274 100.88464066002285 25.439012190359538 1 0 0
8457 0 1 0 6.105421833171969 98.4112443746574 25.274782349190513 1 0 0
8458 0 1 0 6.803769841906586 99.62251047243122 25.4918172188714 1 0 0
8459 0 1 0 6.113376632248235 100.86848555042936 25.596770272627666 1 0 0
488 0 1 0 8.940881392310725 98.38671609379696 25.212169624172027 0 0 0
490 0 1 0 9.01241363797216 100.82479528563547 25.655569743913194 0 0 0
8409 0 1 0 8.2362649298575 99.61441404811568 25.501001078227684 1 0 0
8441 0 1 0 3.98609768357611 102.12103618907119 25.569668151357543 1 0 0
8440 0 1 0 2.5497860751547226 102.07678055217718 25.48557305894488 1 0 0
8491 0 1 0 1.8032465018896675 103.32375305794228 25.519169055603662 1 0 0
8492 0 1 0 2.6274134066570607 104.63386512306882 25.50400530959944 1 0 0
8482 0 1 0 0.41760472069136195 103.36439389318056 25.448203903797943 1 0 0
8493 0 1 0 1.8381293942913135 105.8573479867102 25.490475025385155 1 0 0
8484 0 1 0 0.42243463303984974 105.82979300991752 25.47147142107865 1 0 0
8503 0 1 0 4.0745645762357015 104.61118904682792 25.626143570515527 1 0 0
8502 0 1 0 4.710293532589173 103.34541877655765 25.705441656338223 1 0 0
8504 0 1 0 4.7513104234966335 105.88787811659206 25.537611892484925 1 0 0
8460 0 1 0 6.8467610492035345 102.07202466163947 25.670404240950354 1 0 0
542 0 1 0 8.994559873599957 103.2596551506793 25.747528174819283 0 0 0
8401 0 1 0 8.298543502111325 102.02997558469185 25.6872318687334 1 0 0
8463 0 1 0 8.300651320160028 104.56374156123839 25.76232484896545 1 0 0
8511 0 1 0 6.150343776328389 103.33927072689008 25.724502061859113 1 0 0
8512 0 1 0 6.8894241009603245 104.57670968420958 25.66731323976159 1 0 0
544 0 1 0 9.020311412662705 105.81556088252529 25.771537369199162 0 0 0
8513 0 1 0 6.1548316682853095 105.81793089066764 25.633692003411028 1 0 0
8488 0 1 0 0.4368302216738591 110.77981179344096 25.56985537926668 1 0 0
8497 0 1 0 1.840468104004208 110.81246314343936 25.742603806861077 1 0 0
8486 0 1 0 0.4375970167851862 108.28552558197627 25.490731243846465 1 0 0
8496 0 1 0 2.561022799174794 109.5588487307714 25.71587117526911 1 0 0
8494 0 1 0 2.5924811018481857 107.03690141181349 25.5673994836434 1 0 0
8495 0 1 0 1.873933319409631 108.30348769388071 25.567977081346463 1 0 0
8505 0 1 0 3.992669311953338 107.14948901910442 25.55213717578932 1 0 0
8507 0 1 0 3.986684354302899 109.5917039699021 25.828711525399207 1 0 0
8506 0 1 0 4.684327695262835 108.35672483959995 25.755088733471208 1 0 0
8508 0 1 0 4.703138502033952 110.80127977545263 25.947887693941922 1 0 0
548 0 1 0 8.970997440519694 110.73178585686047 25.955478416178114 0 0 0
8465 0 1 0 8.272471413550553 107.04636120092584 25.822562112149843 1 0 0
546 0 1 0 8.996214708463032 108.27135228645241 25.959014174426493 0 0 0
8516 0 1 0 6.85956025248629 109.54079430875227 25.960468702563446 1 0 0
8515 0 1 0 6.11235077808288 108.28177655832981 25.811704055013884 1 0 0
8517 0 1 0 6.10110598336456 110.72594388599698 25.983091343079877 1 0 0
8514 0 1 0 6.827832657980482 107.06171149724393 25.726749769269507 1 0 0
8467 0 1 0 8.289471319059727 109.51855682997302 25.985906021812646 1 0 0
8500 0 1 0 2.5373854737917996 114.51701719559746 25.654212220689278 1 0 0
8490 0 1 0 0.394004756929381 113.28205829867066 25.611948440015578 1 0 0
8498 0 1 0 2.5462192539907376 112.02033942054956 25.763734335865035 1 0 0
8499 0 1 0 1.8251312705764482 113.2674880606992 25.67326197371758 1 0 0
8501 0 1 0 3.971918569590131 114.51527387829339 25.863972100671397 1 0 0
8509 0 1 0 4.01282888020512 112.00970322236331 25.93773011530316 1 0 0
8510 0 1 0 4.705269874790709 113.28791805271814 25.950403908821016 1 0 0