LAMMPS data file via write_data, version 4 Feb 2025, timestep = 500000, units = metal

3510 atoms
2 atom types

0 38.501999999999995 xlo xhi
0 37.05 ylo yhi
0 75 zlo zhi

Masses

1 1.007999999740698
2 15.99899999588435

Atoms # full

1599 0 1 0 1.0670742922445169 1.758240591747427 4.084591428197317 1 0 -1
1597 0 2 0 1.543479068986294 1.9028524959557362 3.2318672262944093 1 0 -1
1598 0 1 0 1.2069025629101353 2.7931412712415664 3.018150145513008 1 0 -1
1878 0 1 0 2.8192510476262456 7.209208673142406 4.832257357028287 1 0 -1
1553 0 1 0 4.654396780481498 1.3998486006457769 3.8520557482497395 1 -1 -1
1876 0 2 0 2.2757620144549864 6.436922364421027 5.149654429080436 1 0 -1
107 0 1 0 1.988777179713508 9.22286004227959 1.8125852858470974 0 0 -1
2447 0 1 0 4.270181432137578 9.229198659369306 5.41041336300111 1 -1 -1
651 0 1 0 0.592483458101326 0.7760366845866572 2.2326297535309907 1 0 -1
2038 0 2 0 3.9268502819908746 7.7953141513107145 0.1906957938056452 2 0 -1
2446 0 2 0 4.318692148546484 8.51237534542671 4.74888560764771 1 -1 -1
2492 0 1 0 4.111309599464234 6.940968756493117 2.7822234541566853 2 0 -1
2654 0 1 0 3.7383542104900465 3.4939644640230045 5.628818653578774 1 -2 -1
668 0 1 0 3.58107086317833 0.12254029631464347 0.9051547358803855 0 -1 -1
463 0 2 0 1.4587291326247922 4.94854722719715 2.637699420647732 1 0 -1
465 0 1 0 0.7426193228546867 5.0528425571896065 1.9938309859203691 1 0 -1
464 0 1 0 2.216432125496404 5.215508133984844 2.099723803895062 1 0 -1
2491 0 2 0 3.9943563467986216 6.011856531444724 2.6855185047313945 2 0 -1
1877 0 1 0 2.1474909839797385 5.973126040738774 4.282451032140363 1 0 -1
108 0 1 0 0.9706114621770962 8.370715016941991 0.7099296269048079 0 0 -1
106 0 2 0 1.8019987363307233 8.327037962567601 1.2700140391438053 0 0 -1
2040 0 1 0 3.0304737472089975 8.039326682263214 0.4578542042692651 2 0 -1
1180 0 2 0 3.751633389466342 0.45123266990793026 5.997166613293256 1 -1 -1
2448 0 1 0 4.47556473276812 9.007564300518828 3.9107854079701196 1 -1 -1
2493 0 1 0 4.1398215958904165 5.680932600173184 3.6559626850167883 2 0 -1
2653 0 2 0 3.2470176242585493 3.3602506004776656 6.444362927268281 1 -2 -1
1913 0 1 0 0.13706448849219063 4.141863393236446 7.036831159894541 1 -1 -1
3415 0 2 0 1.8202374208344132 9.234431369483705 7.07646982583833 2 0 -1
1202 0 1 0 4.340654065751729 3.2866032436824817 7.724654676295779 1 0 -1
236 0 1 0 4.5683133053482 3.8284987882802684 9.936489567357171 0 0 -1
3417 0 1 0 1.0683921104996397 8.633782312720065 6.826747011587372 2 0 -1
1908 0 1 0 1.8487403572392231 9.13957873309846 10.852107724595852 1 -1 -1
1238 0 1 0 0.44507051894187755 5.128333261362302 9.846302441228275 1 -1 -1
1297 0 2 0 3.2781704603800654 6.7767247957693675 7.757994961473413 2 -2 -1
1113 0 1 0 0.36630475094237014 6.507101345007238 6.538769121694172 1 0 -1
1976 0 1 0 2.079352824363413 6.675312071435928 10.760536470303258 1 -1 -1
3045 0 1 0 4.601197782800247 7.484780701892645 11.296394773213137 2 0 -1
3416 0 1 0 2.463667478193387 8.546420924725219 7.431184710379782 2 0 -1
1912 0 2 0 0.6633319778892623 4.707730044774164 6.397971745292593 1 -1 -1
1299 0 1 0 3.0551588683451825 6.29962612915226 6.915756786272702 2 -2 -1
1298 0 1 0 2.7498654499170403 6.503517163113241 8.513419119517112 2 -2 -1
1906 0 2 0 2.1083186209571734 8.717676907107798 11.732432561078747 1 -1 -1
235 0 2 0 4.533894720909767 4.563641982485501 10.512402241148425 0 0 -1
1977 0 1 0 2.7774299512026976 5.2684825322681315 10.45612663945091 1 -1 -1
1975 0 2 0 2.098015658255148 5.911382492085948 10.204630868958912 1 -1 -1
1914 0 1 0 1.5164215572358537 4.191508659286037 6.344333013024913 1 -1 -1
3044 0 1 0 4.750519091650069 8.043636947211755 9.882610778499282 2 0 -1
2655 0 1 0 3.108636686144041 2.4073475624468523 6.556107730360498 1 -2 -1
931 0 2 0 2.1811292545688388 6.071345471528521 61.85321431109629 0 0 -2
2436 0 1 0 3.3414747371343165 3.1027200044341594 61.20574308292921 2 0 -2
419 0 1 0 1.849932627064434 8.576175150919084 60.69732808580528 2 1 -2
1771 0 2 0 1.2551232993410615 2.8235053287980603 61.793064569790005 1 0 -2
932 0 1 0 2.4380085346954665 5.331011793661533 61.29582496775015 0 0 -2
933 0 1 0 3.0044979115570016 6.580884755426722 61.887463850570036 0 0 -2
2434 0 2 0 4.2004507972687 3.5764857307501363 61.25060177751543 2 0 -2
1772 0 1 0 0.4012275297576273 3.206512994703803 61.53601877600291 1 0 -2
687 0 1 0 0.41481633373641663 0.9856369577667914 61.77821609673532 1 -1 -2
418 0 2 0 1.1615873889477744 9.152371738145947 60.98886243291539 2 1 -2
2435 0 1 0 4.2807871444013905 3.8775890517284046 62.17186022652141 2 0 -2
685 0 2 0 0.025363745377029356 0.11541781303776646 61.74795587095577 1 -1 -2
2410 0 2 0 1.145849685861267 5.0407463304851845 64.20269124287879 1 -1 -2
2412 0 1 0 1.2579137340825228 4.0231989697459 64.22464438593853 1 -1 -2
2407 0 2 0 0.9913884368152502 2.1738541957133677 64.60931459790697 2 0 -2
1945 0 2 0 3.0920526978520275 3.8399673455285397 66.73052948571836 1 -1 -2
1946 0 1 0 2.284591015184924 3.555312060367231 66.28003914515183 1 -1 -2
2766 0 1 0 4.124251897724091 4.427145880491598 64.9839490655351 1 0 -2
1947 0 1 0 2.7840175340023343 3.9596036341215877 67.63683273814165 1 -1 -2
2409 0 1 0 1.6180348600826242 1.374117653065053 64.51313424029996 2 0 -2
2411 0 1 0 1.4423749550090437 5.414765345616158 63.323848371547356 1 -1 -2
1773 0 1 0 1.0156219718346446 2.516250659383693 62.728209666829876 1 0 -2
2843 0 1 0 4.467988917823432 0.8805536049907864 68.01893777455746 2 0 -2
2764 0 2 0 4.760066539571688 4.409277414729788 64.21049640261295 1 0 -2
612 0 1 0 0.8765964347419927 7.418685508713014 67.68972938385622 0 0 -2
1333 0 2 0 1.8100981089042176 7.099016592536298 65.88782716388215 1 0 -2
1335 0 1 0 1.617806453123107 6.264426948386909 65.31263100281252 1 0 -2
2844 0 1 0 3.7315297558266467 2.2263822224385192 67.78208728841531 2 0 -2
1334 0 1 0 1.8326304583678958 7.813344297941661 65.22417067813313 1 0 -2
2842 0 2 0 3.8463833352608607 1.5676771433270527 68.49899766476636 2 0 -2
2282 0 1 0 3.741400736816704 8.794753786296171 67.54693064819743 1 0 -2
2408 0 1 0 0.10911276928038803 1.8258127564317668 64.50618775742039 2 0 -2
610 0 2 0 0.5852326557735288 7.19412932171957 68.59000652601145 0 0 -2
1505 0 1 0 3.7013139890347992 6.365062782641769 66.62399095859298 2 0 -2
1504 0 2 0 4.48112659050076 6.912094055181427 66.73523591385525 2 0 -2
3064 0 2 0 1.203771247249283 0.030414051331759822 71.89253166767485 1 0 -2
1380 0 1 0 1.7577222621438717 2.613248915283171 71.65004356147458 1 -1 -2
1379 0 1 0 1.680262963256648 3.6883019714961254 70.6426214361011 1 -1 -2
1378 0 2 0 1.1305526015368819 2.955276880148096 71.01239762330331 1 -1 -2
2099 0 1 0 4.164186961116135 3.225631795315226 72.19726152687788 1 0 -2
2098 0 2 0 3.4499489444059477 3.1881518357437444 72.8641694904761 1 0 -2
1728 0 1 0 2.235267719769271 1.018883167345307 69.00118435218283 0 0 -2
2100 0 1 0 3.5831618801089076 2.465607056530509 73.51901593080247 1 0 -2
3066 0 1 0 1.3280313485361879 0.15647437720111948 70.93879634278682 1 0 -2
156 0 1 0 2.010967883627008 5.656140895725574 69.31151877577383 1 -1 -2
155 0 1 0 3.4011972665356365 5.414814332039472 70.04498803997576 1 -1 -2
601 0 2 0 2.5842435392565553 5.599339752687329 74.2255633948088 0 0 -2
3049 0 2 0 1.2031601024685343 7.768551294979912 72.66396104171913 2 1 -2
2165 0 1 0 2.6945428906162023 7.99858481217845 70.7314118416497 2 0 -2
154 0 2 0 2.6319257188374046 4.969695671043515 69.57014803062191 1 -1 -2
603 0 1 0 2.9425565623104846 4.932697884805279 73.61008660381077 0 0 -2
602 0 1 0 3.3512368474926126 6.110142881799236 74.48366228476661 0 0 -2
3051 0 1 0 1.6594890722229279 7.020015418992906 73.08817093349136 2 1 -2
3050 0 1 0 0.29884647921293367 7.901496214552106 73.0844564009899 2 1 -2
1743 0 1 0 0.6295316304496227 5.6240313051298525 74.85332664395229 1 0 -2
1727 0 1 0 0.8725995543760747 1.6390660419723706 69.35510241409933 0 0 -2
2164 0 2 0 3.517816328452567 8.522630018519868 70.53770042929503 2 0 -2
2166 0 1 0 3.489759169169643 8.894625995323073 69.65716751607438 2 0 -2
2241 0 1 0 4.593329851822013 7.032071781492736 70.55602867445819 1 0 -2
1726 0 2 0 1.2225683941864034 0.7625454514920312 69.07718765102213 0 0 -2
2039 0 1 0 4.035915951511363 8.13570716217513 74.25437541524666 2 0 -2
2239 0 2 0 4.605911116456477 6.135925614159196 70.88943035526287 1 0 -2
2634 0 1 0 4.571480627326942 9.222562517490502 72.14858848415831 2 -1 -2
1751 0 1 0 0.12013429195831886 0.7980294905270086 74.72946202343701 1 0 -2
467 0 1 0 0.24070681700111962 13.982485323336231 1.1381638131467118 1 0 -1
1686 0 1 0 2.618848208186958 10.66770152936649 3.7516055323187607 1 0 -1
1685 0 1 0 2.4007384926219113 11.468824825564736 2.4859360502202055 1 0 -1
1234 0 2 0 1.1771426191656313 13.521022770844098 5.2955626999287295 1 -1 -1
1684 0 2 0 2.102390266575682 10.598590220422865 2.9277705336010964 1 0 -1
466 0 2 0 0.9141739941707946 13.521228640567333 0.6299405414064428 1 0 -1
1235 0 1 0 0.27858361413376764 13.67711769527089 5.709219627143234 1 -1 -1
1657 0 2 0 4.569024460389904 14.316931113949027 3.904183977439304 2 -1 -1
2550 0 1 0 3.7546313635555104 17.608950125219785 2.6552754555906954 1 -1 -1
904 0 2 0 0.05498370493153518 16.889945494697333 0.4969887554215008 1 -1 -1
2072 0 1 0 4.621032840128102 15.629945317842498 0.3006523311858368 1 0 -1
2548 0 2 0 4.283165733312301 17.13810816644477 3.37596709706442 1 -1 -1
3159 0 1 0 0.6596322667474542 14.946847279881894 3.5569121663275336 2 0 -1
1374 0 1 0 3.116786161320645 16.45184742466951 5.070688583727873 1 -1 -1
2711 0 1 0 3.6332445765359713 13.29798323743446 2.521277742737152 1 -1 -1
1658 0 1 0 4.672984698007107 15.292529691289076 3.6598256879339233 2 -1 -1
2710 0 2 0 3.3776530429384253 12.774949986210743 1.770904040068074 1 -1 -1
3047 0 1 0 4.064151691529717 17.828882123313917 0.872611745183881 2 -1 -1
2712 0 1 0 2.683656984492312 13.220028963045044 1.279590802086142 1 -1 -1
905 0 1 0 0.1353276903393903 16.43885847060555 1.368886826524463 1 -1 -1
3157 0 2 0 0.031558313798030944 15.178867724113221 2.7614069579327025 2 0 -1
1372 0 2 0 2.6908710438894943 15.94862290017836 5.775393799941326 1 -1 -1
1236 0 1 0 1.7295879287837406 14.300448954997842 5.500228900063079 1 -1 -1
2549 0 1 0 4.800690202568936 17.767698700071055 3.851194626017097 1 -1 -1
1260 0 1 0 2.029916454602218 11.984829665947128 5.66469538731123 2 -1 -1
1258 0 2 0 2.6652199930432374 11.259712476248287 5.38114418569354 2 -1 -1
2468 0 1 0 0.5062115249599727 11.05392880984913 3.7729363238761353 2 0 -1
1373 0 1 0 2.1588991358647363 16.61764276859363 6.193275966339631 1 -1 -1
1769 0 1 0 4.080168824547851 11.68004419472385 5.7858987370411326 2 -1 -1
1259 0 1 0 2.4087587775816384 10.502643570819808 5.937483157965944 2 -1 -1
1107 0 1 0 2.5224642561688033 11.39182618400433 8.618270237666856 1 0 -1
715 0 2 0 0.9902879566153155 17.9961690583204 6.504527259759077 1 0 -1
105 0 1 0 4.1837712111617735 13.189418189895248 8.560103505483115 1 -1 -1
1106 0 1 0 1.6363205335617408 12.64036362878012 8.924080886766362 1 0 -1
1105 0 2 0 2.4019115177561434 12.353728746053282 8.424884451706854 1 0 -1
716 0 1 0 0.2903938362522325 17.764622698050353 7.160888891235147 1 0 -1
3145 0 2 0 4.266715881083064 16.08711718105743 8.383909683659605 1 0 -1
3131 0 1 0 0.14783767462825953 10.688245177486271 9.255235885069782 2 0 -1
3132 0 1 0 1.1494582788993257 9.741445939467633 8.611511003264365 2 0 -1
3130 0 2 0 0.7932138538930585 9.969730102506656 9.510007574813088 2 0 -1
3146 0 1 0 3.7413967104852137 16.067318439750704 7.58087046433539 1 0 -1
3147 0 1 0 4.721478784236906 16.875599578801534 8.378828893797431 1 0 -1
1907 0 1 0 1.7487173269430878 9.33826969089109 12.37251023216866 1 -1 -1
372 0 1 0 2.4531601390844058 11.966652905655426 61.197324317051056 1 -1 -2
420 0 1 0 1.3074677256930274 10.045336892239902 60.54660161785994 2 1 -2
370 0 2 0 1.7281264264370741 12.11465227360877 60.493541695960126 1 -1 -2
371 0 1 0 0.8975971057929006 12.25344621778527 61.004651334332934 1 -1 -2
3101 0 1 0 3.954745128550892 12.314886469784536 63.509702644327696 2 1 -2
181 0 2 0 1.243603396867764 9.96180318553608 64.13318191314778 1 0 -2
3100 0 2 0 3.7185335040683554 11.59645305401891 62.931856197385535 2 1 -2
56 0 1 0 0.1433652419954396 11.936193436509154 63.539130429686395 2 0 -2
1474 0 2 0 1.7261702683847395 11.103964118183294 66.5963768271525 1 -1 -2
1475 0 1 0 0.959410737612775 11.067589548237622 67.26146060238038 1 -1 -2
171 0 1 0 2.0861302067988166 13.402852842399401 66.58524122250951 1 -2 -2
183 0 1 0 1.4366081745270047 10.40803376509717 65.03837695588108 1 0 -2
257 0 1 0 2.4275977725659508 15.106129660923362 68.16182090968174 1 -1 -2
182 0 1 0 1.8757433593719435 10.332203159547 63.466637942859855 1 0 -2
1476 0 1 0 2.5181261515113014 10.692528208147483 67.06819723502865 1 -1 -2
2281 0 2 0 3.8037384363916273 9.683535710008467 67.9756131419866 1 0 -2
2481 0 1 0 1.487670324388567 17.89818485680641 63.1419019930882 0 -1 -2
170 0 1 0 2.3016092000127277 14.936571710744408 66.05047190424355 1 -2 -2
838 0 2 0 3.3667404833012133 15.77530167754802 65.0485134935124 0 0 -2
2283 0 1 0 4.721731934313475 10.011249485531428 68.02777347628248 1 0 -2
839 0 1 0 3.6699576411889647 16.569774921795748 65.60117283809036 0 0 -2
169 0 2 0 1.8074598928308414 14.325112092402614 66.63830782430121 1 -2 -2
2480 0 1 0 0.8258831782304711 17.62180317489773 64.45331180076614 0 -1 -2
2479 0 2 0 1.427055517845222 17.1995183348829 63.83124449651411 0 -1 -2
840 0 1 0 2.816826883722542 16.287858492211058 64.39726767605065 0 0 -2
3224 0 1 0 0.14933497683410152 14.473910926535977 66.34030565801892 2 0 -2
1958 0 1 0 4.801815960191292 14.207612230436192 64.85468338011289 2 1 -2
3102 0 1 0 4.505705728881023 11.051821622126184 62.859249969765706 2 1 -2
3478 0 2 0 2.6113090568746102 12.80115185923877 70.52778623777938 2 0 -2
3480 0 1 0 1.7418695599200804 13.08880907594223 70.7364995313773 2 0 -2
3479 0 1 0 2.5047050929810477 11.865730541428668 70.50671896016588 2 0 -2
3199 0 2 0 3.4177504315850142 11.60521236747665 73.92943665598038 2 0 -2
499 0 2 0 0.4614395794320749 14.340950715937437 71.28240831342691 1 0 -2
3250 0 2 0 1.554849287323856 10.355968337217485 72.14069081398871 2 0 -2
3251 0 1 0 1.9222082328770325 10.682542928877632 72.95886669731868 2 0 -2
2896 0 2 0 2.854764781473697 18.013119297511047 71.69492252351141 1 0 -2
468 0 1 0 0.6583903421841643 13.567978390797116 74.69462232891367 1 0 -2
3201 0 1 0 3.9074902887479146 11.228259267675364 74.68402873733362 2 0 -2
1098 0 1 0 4.551834960488363 17.455190056983735 70.28343870972365 1 0 -2
2677 0 2 0 1.2263903041623572 18.348259526570644 69.57436798406908 1 -1 -2
2679 0 1 0 0.25508404999209294 18.216024554347108 69.83408701122727 1 -1 -2
1241 0 1 0 4.449806761610299 14.42331536326753 73.45066992190075 1 -1 -2
3200 0 1 0 3.2001945527428632 12.517280460679508 74.22414880170679 2 0 -2
1242 0 1 0 2.993614658898248 14.858211808637837 73.89375689019982 1 -1 -2
3252 0 1 0 1.3463213728229029 9.406412545737508 72.33522973684603 2 0 -2
256 0 2 0 2.646903305744449 15.462658437793278 69.07820095923401 1 -1 -2
2897 0 1 0 2.6246152138601104 17.178917046247747 72.14924116154226 1 0 -2
258 0 1 0 2.6009416172658333 14.66913618365555 69.69042522764744 1 -1 -2
2898 0 1 0 2.239924984315584 18.15175043130866 70.95971690035977 1 0 -2
2678 0 1 0 1.449284306789269 17.549383486177376 69.05677336762388 1 -1 -2
3388 0 2 0 1.6593767504302515 15.65944374215331 73.25300984080414 1 0 -2
3389 0 1 0 0.9830764170532338 15.995265731003837 73.90510015695938 1 0 -2
3390 0 1 0 1.0676711015584184 15.339715872763234 72.50450408408076 1 0 -2
1240 0 2 0 3.846669974305568 14.40116318466205 74.23436653718272 1 -1 -2
1020 0 1 0 0.3008789038941783 11.295750617621907 72.22843136322362 2 -1 -2
3461 0 1 0 4.404425637583113 13.235324778878555 71.31458735461199 2 1 -2
1184 0 1 0 0.9152216239733174 18.348848022514268 74.61669304258655 1 -1 -2
2633 0 1 0 4.7114406122454575 10.598604271007947 73.04108119003395 2 -1 -2
1185 0 1 0 1.9130032419303546 18.401288998217215 73.45608718794026 1 -1 -2
1512 0 1 0 4.318897288011052 23.270792917385553 2.789543098999298 2 -1 -1
1190 0 1 0 0.5418627043043028 27.257148964640457 6.175548751067675 1 -1 -1
289 0 2 0 3.6017265417998283 27.444049284804294 6.2117075890307465 1 -1 -1
472 0 2 0 3.528068097054956 24.54475664921631 1.858947333408636 1 -2 -1
3138 0 1 0 3.56369714370343 22.043585971037867 4.504366926371195 2 0 -1
3443 0 1 0 2.2675353552923223 24.044953200548267 0.7221388951806407 2 0 -1
3442 0 2 0 1.5043369279302663 24.035522692348795 0.15136326894284624 2 0 -1
2105 0 1 0 1.5437953549675998 20.252872123603762 4.841864258361319 2 0 -1
1482 0 1 0 0.4485293347583226 22.47031527036127 3.2910062399516296 0 -1 -1
1481 0 1 0 1.5641728975400315 22.869400422656547 4.295035553688011 0 -1 -1
3136 0 2 0 2.8023837105537592 21.907028332990926 5.097816123883445 2 0 -1
1970 0 1 0 0.5491166624450808 20.494890325070816 1.4532277520320822 1 0 -1
2104 0 2 0 0.697806952211133 19.73051353353532 4.675335507827746 2 0 -1
2518 0 2 0 1.5667226411311648 25.644447724781344 3.1574007153156254 2 -1 -1
1971 0 1 0 0.04085675380026637 20.16799928216208 2.902313810759581 1 0 -1
3444 0 1 0 1.3041081072278145 24.94970524880657 0.061588951698968525 2 0 -1
473 0 1 0 2.9069162321311843 25.123060794001677 2.3217011138905796 1 -2 -1
2106 0 1 0 0.6865302899949681 18.94052274570739 5.331770352210508 2 0 -1
2520 0 1 0 0.9638251568118852 26.332760683222975 2.8640211917805516 2 -1 -1
1510 0 2 0 4.767722286104 22.52797366480304 3.2992068434775565 2 -1 -1
1480 0 2 0 0.6531239027040882 23.151746447803657 3.9692574629115778 0 -1 -1
380 0 1 0 0.08380739893654265 23.708583612774547 5.376126378713283 1 -1 -1
2519 0 1 0 1.0562868520301238 24.79866317932166 3.2856280247939673 2 -1 -1
474 0 1 0 4.284105664338977 25.076809155429146 1.599219682032096 1 -2 -1
3137 0 1 0 3.111814111864342 22.277976736326043 5.923980638701915 2 0 -1
3046 0 2 0 3.5658906057605053 18.61134595073868 1.1505151410906709 2 -1 -1
3048 0 1 0 2.95646088133688 18.676167910060258 0.38594220030445564 2 -1 -1
790 0 2 0 0.8889411803785682 24.02288082280917 10.344362255671859 1 -1 -1
118 0 2 0 0.5547860208566342 27.24958058767411 9.493979504751954 1 -1 -1
792 0 1 0 0.7959024384383656 24.95893094970255 10.145394846152731 1 -1 -1
3260 0 1 0 4.596805684803599 23.351661957680246 10.930874013895552 2 -1 -1
2400 0 1 0 1.4431057623363768 22.937577773822248 8.684408797814005 2 -1 -1
381 0 1 0 0.31252421731505997 25.009469728188492 6.347443541820386 1 -1 -1
2398 0 2 0 0.9682914417329641 22.294505468537572 8.109984900134664 2 -1 -1
1370 0 1 0 2.2230423531095433 20.617343708743842 7.865666659799341 1 -1 -1
1371 0 1 0 3.67892011588508 19.95543128005838 7.653984920332861 1 -1 -1
1369 0 2 0 2.717378500170609 19.78324940979949 7.9046233146038665 1 -1 -1
2399 0 1 0 0.719303062124659 22.97404046970315 7.419361831772941 2 -1 -1
2200 0 2 0 3.979691105595009 23.225244186533235 7.387592302161224 1 1 -1
1415 0 1 0 3.8567193975056835 20.023277662713657 9.875948076666395 1 -1 -1
1191 0 1 0 0.7579594219256429 26.886588958023502 7.71953092485352 1 -1 -1
2201 0 1 0 3.8382865400583035 23.070444140921317 8.365239743316124 1 1 -1
1189 0 2 0 1.1481926828585007 26.809544240049384 6.82138756577548 1 -1 -1
2202 0 1 0 4.521769880593676 24.077520630304228 7.376831362174366 1 1 -1
717 0 1 0 1.73260727243284 18.53426118876859 6.977085146990378 1 0 -1
119 0 1 0 1.4242723159834436 27.423983183328108 9.94586106741905 1 -1 -1
1414 0 2 0 4.682910284009219 20.24261014929856 10.334736999591735 1 -1 -1
786 0 1 0 4.806657470243014 26.19131171986357 6.605338853878861 0 0 -1
791 0 1 0 0.04013672262219359 23.689989689142216 9.982499252080029 1 -1 -1
291 0 1 0 2.64352632354605 27.26044700204759 6.368932620791017 1 -1 -1
3422 0 1 0 2.935231746398017 25.115019846789238 61.4904004849255 1 -1 -2
3421 0 2 0 3.3738572424495605 25.40020873932261 62.34473608028059 1 -1 -2
1644 0 1 0 4.5023992190888364 26.634470663158435 62.242436162718825 1 -1 -2
2806 0 2 0 1.673457855713949 20.35847572363262 63.998552205352915 1 -1 -2
2807 0 1 0 2.090082600416422 20.237538661868392 64.84132591733798 1 -1 -2
2808 0 1 0 0.7382377997008412 20.31625196181493 64.15899642748575 1 -1 -2
2406 0 1 0 2.4007665922315553 22.39468278611313 64.04848731714216 1 -1 -2
2214 0 1 0 3.818913665427577 22.397975602689897 66.96875229632265 1 -1 -2
1412 0 1 0 0.4558830231530405 25.62891679808289 67.59587738148174 2 -1 -2
639 0 1 0 0.3272649390769068 24.928436895155883 63.816359477860544 1 -1 -2
127 0 2 0 1.2728920882272123 19.917714556400593 67.32659314179396 1 -1 -2
3423 0 1 0 3.164059425758754 24.699731873107197 62.97500034382911 1 -1 -2
129 0 1 0 1.9680099014994061 20.643339312325274 67.45651098504412 1 -1 -2
2404 0 2 0 2.320555515874255 23.32955759857275 64.38977217479518 1 -1 -2
2213 0 1 0 3.4085320322665846 23.94090611617924 67.17569133638155 1 -1 -2
178 0 2 0 3.8569560023427147 20.952479515302002 67.49584283635951 0 -1 -2
179 0 1 0 4.384268019289624 20.419738177505256 66.89660706978746 0 -1 -2
1176 0 1 0 1.0111357831595338 27.68506283818595 66.39795309905637 1 -1 -2
2212 0 2 0 3.8782791049570835 23.334094910978386 66.54784837490297 1 -1 -2
128 0 1 0 1.1548274024523972 19.364279418581358 68.14227223681989 1 -1 -2
2405 0 1 0 2.7501523861852095 23.26652958304392 65.27133734991239 1 -1 -2
180 0 1 0 4.351204171283956 21.045963842054455 68.38050016417216 0 -1 -2
1411 0 2 0 0.8960177252716834 26.464758412951507 67.9726843799696 2 -1 -2
1413 0 1 0 0.20441868203835709 26.660839133690025 68.67044218977226 2 -1 -2
638 0 1 0 0.20030135273667068 26.190640220453083 64.7000937192823 1 -1 -2
1174 0 2 0 0.778321076557451 27.730250431638506 65.4929618492417 1 -1 -2
3053 0 1 0 3.6116934761209465 22.974245028214238 71.93364482276694 1 0 -2
3481 0 2 0 4.499304943307251 20.084390189794934 72.23403681719839 1 0 -2
3056 0 1 0 1.6095157781727163 26.794671342356025 74.03452396125644 2 0 -2
893 0 1 0 0.2774382669188075 22.140711239295698 71.0303582510663 1 -1 -2
2153 0 1 0 1.118140427468327 22.21641154350239 73.79392908677657 2 -1 -2
3054 0 1 0 4.718925836270473 23.832023990169745 71.54694463964671 1 0 -2
3055 0 2 0 0.6364343400271588 26.788059746918776 74.26802063031782 2 0 -2
3483 0 1 0 3.751082030656436 19.490974774049352 72.1535530705916 1 0 -2
2565 0 1 0 4.052778627583354 27.01482739234477 73.30493011479425 2 -1 -2
2152 0 2 0 1.1329185206489596 21.694645360085214 72.95165296940124 2 -1 -2
3052 0 2 0 3.9975795153830562 23.368212777277783 71.12966596865593 1 0 -2
2563 0 2 0 3.4626959165029554 26.970686179963995 74.07964214564724 2 -1 -2
2569 0 2 0 0.07396056076313234 25.334651080350255 71.8704423648098 2 -2 -2
2154 0 1 0 1.027934060010746 20.773317168776476 73.27392269322426 2 -1 -2
3121 0 2 0 3.2174741948963326 25.140241970694046 68.78798422703107 2 -1 -2
1183 0 2 0 1.696225824704888 18.88005644687889 74.28156115260501 1 -1 -2
1461 0 1 0 3.982497121163724 26.54955660306916 71.26669484996951 1 -1 -2
3057 0 1 0 0.25376641187257776 26.192368360969446 73.56256437028956 2 0 -2
3122 0 1 0 3.1860319169312232 24.634643672029494 69.62867646021515 2 -1 -2
2760 0 1 0 1.2547732420065072 26.588100177168034 71.35415213487138 1 -1 -2
2564 0 1 0 3.9284104520545453 26.513878908738757 74.76707808628544 2 -1 -2
2758 0 2 0 1.8829795934711173 27.32374445807985 71.40103087734897 1 -1 -2
1459 0 2 0 4.710386157421607 26.1393939675958 71.75028605197798 1 -1 -2
3123 0 1 0 2.379593082834352 25.680066879996737 68.79116361005096 2 -1 -2
2000 0 1 0 2.963732534113663 29.177403658271363 2.0594126064774416 1 -1 -1
2530 0 2 0 2.5348152754732425 31.553996221142395 4.6477188592270915 1 -1 -1
1341 0 1 0 4.510580203795739 30.403943091653897 0.4125819642500042 1 -2 -1
2531 0 1 0 2.524815105559418 30.769253704481212 3.9994544500257962 1 -1 -1
2532 0 1 0 3.4547853528438974 31.789596400270828 4.8441807263536045 1 -1 -1
1999 0 2 0 2.8664529999579567 29.13143111009313 3.026074103953409 1 -1 -1
739 0 2 0 0.09939876088906358 28.321525657000233 4.601002261068125 1 -1 -1
741 0 1 0 1.0098740236202683 28.104315598499845 4.302328051806328 1 -1 -1
3149 0 1 0 1.3890604149420138 32.91722409627617 4.275394581378857 1 0 -1
1339 0 2 0 4.352615726447194 29.417293271278727 0.49952135392934693 1 -2 -1
1219 0 2 0 4.747780272894649 32.12140822528991 0.9264011347651484 1 -1 -1
2001 0 1 0 3.6453857519387114 28.58531808476195 3.237155023794537 1 -1 -1
367 0 2 0 3.62384410725717 34.27300146451701 2.4403266592438984 1 -1 -1
1911 0 1 0 0.5619499517456131 31.070585011258256 2.0532620604430543 1 -1 -1
1221 0 1 0 4.058161991220764 32.578044796539814 1.3983431500632184 1 -1 -1
1910 0 1 0 1.3560145892946436 32.41681480535799 2.1534400620468155 1 -1 -1
3148 0 2 0 1.161542742034626 33.83984275460478 3.997927723938273 1 0 -1
1909 0 2 0 1.3256219232825355 31.610677534079645 1.6616563712205932 1 -1 -1
3150 0 1 0 1.9500412847101791 34.11273226561002 3.489769837099548 1 0 -1
368 0 1 0 4.433708836306861 34.40936715777337 3.0017210711288413 1 -1 -1
3387 0 1 0 1.2599272787309346 35.233273145184725 5.856164787362926 2 -1 -1
2325 0 1 0 0.18025999836220072 28.29268462316358 0.15595844736911188 2 0 -1
369 0 1 0 3.5946844695774582 35.068844927346696 1.8172209933320769 1 -1 -1
667 0 2 0 3.0181059859272636 36.44339035538406 0.660874406620447 0 -2 -1
669 0 1 0 2.094645012943659 36.637543579024054 1.0382878891982485 0 -2 -1
649 0 2 0 0.4195217009232915 37.02483771686517 1.677640807240823 1 -1 -1
1810 0 2 0 4.371876285044819 32.84313773104781 6.231781808533272 1 -1 -1
290 0 1 0 3.7653980046356 27.811005635866934 5.36105941816984 1 -1 -1
1182 0 1 0 2.887843996202997 37.047776463347425 6.213903674166294 1 -2 -1
2777 0 1 0 2.9416779540393097 30.145057800469928 7.746123889257075 2 -1 -1
2776 0 2 0 3.772326381460538 29.71192305905324 8.05737180848407 2 -1 -1
1951 0 2 0 1.7162416252934445 31.171736447195286 7.258664692439373 2 -1 -1
1667 0 1 0 0.9886467872098289 31.391321577520667 10.742179946912053 1 -1 -1
1952 0 1 0 1.2820576438151956 32.02352997529489 7.5810166265515715 2 -1 -1
2199 0 1 0 2.597270954673954 35.72962517651524 10.026662786687776 1 0 -1
251 0 1 0 0.7450737923272756 36.028361472518576 9.234833264334487 1 -1 -1
2783 0 1 0 3.74850596670155 28.61014502145208 9.885335957237762 1 -1 -1
2198 0 1 0 3.3246463862420534 36.36234138490775 11.25092303106279 1 0 -1
1811 0 1 0 3.605721892134139 33.31915069117863 6.6107791013763935 1 -1 -1
2197 0 2 0 3.4884607713021234 35.724710402290626 10.546022010137445 1 0 -1
2778 0 1 0 3.9749024630508103 29.092283218754527 7.356223793531359 2 -1 -1
1668 0 1 0 2.488361875046647 31.87977955429898 10.8306107646238 1 -1 -1
3386 0 1 0 1.8309048495670843 35.32614780090047 7.328969067186975 2 -1 -1
2784 0 1 0 2.72925698973396 29.290206401299535 10.916734600858852 1 -1 -1
1666 0 2 0 1.891512212672312 31.165058200751773 11.128374677438234 1 -1 -1
250 0 2 0 1.4296870280090779 35.4102095646737 8.939471523952774 1 -1 -1
161 0 1 0 4.169966710898601 34.25257978642331 10.652674695372978 1 0 -1
1181 0 1 0 4.342975400148814 36.96201362375045 6.600862308090711 1 -2 -1
3490 0 2 0 0.11357537900888531 33.31797121587385 8.168215341636527 2 0 -1
252 0 1 0 0.9272735280105348 34.53294375678231 8.855005331833082 1 -1 -1
160 0 2 0 4.542262351855116 33.30626445158225 10.6052963303954 1 0 -1
2782 0 2 0 3.071565127243129 28.469963075785984 10.546358563172996 1 -1 -1
1739 0 1 0 0.2753341805156611 30.044671257929757 7.56493376646302 1 -1 -1
3162 0 1 0 0.6435506665399325 29.59570251410929 12.242244014310291 2 0 -1
1953 0 1 0 1.9076539305515268 31.28180951563267 6.292527949293434 2 -1 -1
3385 0 2 0 2.093994040849139 35.33060525342366 6.34160271328307 2 -1 -1
120 0 1 0 0.017385424393893314 28.04144846047806 9.68894358912581 1 -1 -1
1812 0 1 0 4.808965018269812 32.480459516724984 7.013820109357003 1 -1 -1
686 0 1 0 0.627717051068112 36.45425908841115 61.93660469330428 1 -2 -2
1753 0 2 0 3.832603707422373 29.115048753220893 60.663705548121996 1 -1 -2
1755 0 1 0 4.243782515201228 28.48350309594067 61.37553707180113 1 -1 -2
3341 0 1 0 3.14606707418894 30.18814772770367 61.78159477791859 1 -1 -2
1754 0 1 0 4.708281470849387 29.549085962606256 60.525416813757715 1 -1 -2
3342 0 1 0 1.832913088414525 30.683025386146973 62.28607520709387 1 -1 -2
3447 0 1 0 4.103237450773516 30.657203395724355 66.93731173287193 2 0 -2
3445 0 2 0 4.070391565575195 31.02655061758798 66.047737976746 2 0 -2
3446 0 1 0 4.1212294224815285 30.225575462032317 65.47515399542097 2 0 -2
600 0 1 0 0.9903535004583234 32.75096436375134 65.60413005105576 0 -1 -2
599 0 1 0 2.0176452492265278 32.08001916062271 66.59645321596112 0 -1 -2
1252 0 2 0 1.6040172421052323 34.85488742616563 62.812309813414515 1 -1 -2
598 0 2 0 1.5176785674145872 32.9313766306785 66.41149288886818 0 -1 -2
2192 0 1 0 2.9977364333285825 29.700206263917618 63.891420803422875 1 0 -2
3362 0 1 0 0.2725592649706606 29.52767525442644 64.4112470898073 1 0 -2
1777 0 2 0 4.110236285498953 33.392783135617485 63.250102829009236 1 -1 -2
3340 0 2 0 2.7346153232399493 30.61864925578809 62.5541770560383 1 -1 -2
2840 0 1 0 1.069396644472785 35.52375974503047 67.28244812979514 2 -1 -2
2841 0 1 0 0.8434934143354729 37.02119107424439 67.3259190952928 2 -1 -2
1778 0 1 0 3.815224978305913 32.47680853205769 62.965596788989366 1 -1 -2
2839 0 2 0 0.6256060579553313 36.238137881418645 66.76593208078111 2 -1 -2
1254 0 1 0 0.9304839420107185 34.16104853740124 63.01881220743964 1 -1 -2
2193 0 1 0 3.540630336930873 28.28810800355574 63.683366772944346 1 0 -2
1779 0 1 0 3.914564977553684 33.548214987734234 64.18916235968081 1 -1 -2
1759 0 2 0 4.0149379555472375 34.623286647049106 65.74452324620808 1 -1 -2
1761 0 1 0 3.180757579044597 34.35136900866574 66.25549788403745 1 -1 -2
1253 0 1 0 2.493415347695535 34.42719641126866 62.83584950140123 1 -1 -2
2263 0 2 0 2.2554306574542364 36.840101595756884 64.66507994132981 0 0 -2
2265 0 1 0 2.0874472737827388 36.23261605288995 63.91148507833466 0 0 -2
2264 0 1 0 1.5780182687257465 36.593832202676076 65.33305921387004 0 0 -2
1175 0 1 0 1.6161822579026326 28.07195339364609 65.02791577508967 1 -1 -2
2191 0 2 0 3.1718643356983063 28.85783881190831 64.39718837641216 1 0 -2