LAMMPS data file via write_data, version 4 Feb 2025, timestep = 500000, units = metal

3510 atoms
2 atom types

0 38.501999999999995 xlo xhi
0 37.05 ylo yhi
0 75 zlo zhi

Masses

1 1.007999999740698
2 15.99899999588435

Atoms # full

250 0 2 0 2.885141394728492 0.9905829040453632 1.6922403431554573 1 -1 -2
252 0 1 0 2.5270987838890844 0.4711012244565382 0.964832581008005 1 -1 -2
251 0 1 0 3.787953532754711 1.1852044153915935 1.2746200696332148 1 -1 -2
521 0 1 0 1.3478692707411633 1.5070321765093018 2.7773050314718963 1 0 -2
2753 0 1 0 0.7086030331042985 5.758788221455055 2.214747079620953 2 0 -2
520 0 2 0 0.37144590029310726 1.7779962242868343 2.814177028704934 1 0 -2
1894 0 2 0 4.717750579119709 8.852924774211106 1.6027664224643088 1 -1 -2
522 0 1 0 0.5040063750549093 2.662398698175869 3.2680709189440975 1 0 -2
2752 0 2 0 1.0293478175072077 4.8492311410525595 2.386001335728335 2 0 -2
2561 0 1 0 3.1415075387513656 5.775664338022157 1.2024133959638528 2 -1 -2
2560 0 2 0 3.9774763528709802 6.021447667843511 1.6366188565162927 2 -1 -2
239 0 1 0 2.1653979506531846 7.441662857785383 4.176110679727334 1 -2 -2
238 0 2 0 2.520782996293459 6.553553371582872 4.145498714969504 1 -2 -2
240 0 1 0 3.0863780319905993 6.524233051805279 4.927697647222201 1 -2 -2
2562 0 1 0 3.6455181822451586 6.150777103020356 2.590179925700574 2 -1 -2
2754 0 1 0 1.4223999487104466 5.065549895695622 3.2847117172080083 2 0 -2
2994 0 1 0 1.6706296955307784 3.7344858897042563 0.4398866069622045 0 0 -2
1896 0 1 0 4.388983077299769 7.934681222852433 1.5129191852412247 1 -1 -2
1895 0 1 0 4.6138256493400105 9.255595502892708 2.515426222587815 1 -1 -2
404 0 1 0 0.19942931910878645 7.828975867121369 0.7181660484338139 1 0 -2
1219 0 2 0 2.442495291954574 9.236982078199683 5.319712942521742 2 -1 -2
403 0 2 0 0.07527878661650578 6.83730094583086 0.7893625462229735 1 0 -2
1220 0 1 0 3.4016063448629352 8.989119083414089 5.453685891922324 2 -1 -2
464 0 1 0 3.444260257786994 0.002786964703346939 3.3173216615985432 1 0 -2
405 0 1 0 0.5645896090478542 6.364509494275785 0.0634271554339847 1 0 -2
3399 0 1 0 1.0004633657083082 1.9186567539235224 55.07002856641055 2 0 -3
1126 0 2 0 2.4994862464446426 1.1086470508883057 54.371626040509064 1 -1 -3
1127 0 1 0 2.5054639841234576 0.24327611254974624 53.912148399756 1 -1 -3
1128 0 1 0 3.362076650100195 1.3748967491680961 54.61491982194329 1 -1 -3
2873 0 1 0 1.4129054349383035 3.941715931326954 55.415314803940866 2 1 -3
3397 0 2 0 0.2979395240923167 2.600788966068628 55.28281642109827 2 0 -3
2874 0 1 0 1.8203367747838648 5.510376351978104 55.23004662792498 2 1 -3
351 0 1 0 2.458937149078587 8.144705539096387 55.22023391186363 2 -1 -3
2872 0 2 0 2.0769469486917056 4.670952903506797 55.68923782422687 2 1 -3
349 0 2 0 2.476818539186476 7.261032077574309 54.73893626217121 2 -1 -3
1535 0 1 0 4.2802056492597 7.017247449926389 54.362913637689616 1 -3 -3
350 0 1 0 1.838093704673881 7.448486105893209 53.99652068920512 2 -1 -3
2311 0 2 0 2.815523648687561 1.203462054722031 62.35021558256096 2 -1 -3
3023 0 1 0 4.070599883311731 3.640751479651903 57.79809495077226 2 -1 -3
2850 0 1 0 1.1429701658204225 0.9082000585990422 58.347733727230725 1 1 -3
1743 0 1 0 3.9924501799573497 1.3378763175102741 59.16500101373311 1 0 -3
2849 0 1 0 2.1270551329575773 0.7368413260696899 57.196046030306135 1 1 -3
1742 0 1 0 3.310510542144592 2.490002150739053 59.92678603905792 1 0 -3
2313 0 1 0 3.8052104726755505 1.2473523931500419 62.22715508243378 2 -1 -3
2856 0 1 0 3.223199436377281 7.998796979784339 60.424707524930405 2 -1 -3
1741 0 2 0 3.8937880646968406 2.311990761307489 59.118928565056954 1 0 -3
4 0 2 0 1.2606912397846644 2.9214675486638924 59.927840306048125 2 0 -3
5 0 1 0 1.073553482317821 3.902572291946496 59.676741843412614 2 0 -3
1929 0 1 0 3.781640128261203 6.205936154461351 60.5931101071887 1 1 -3
6 0 1 0 0.6019702571315573 2.731760267889728 60.66423652601838 2 0 -3
638 0 1 0 0.3505846821393247 6.2866078549622335 58.85559245839032 1 -1 -3
2854 0 2 0 3.325237790808126 7.591657766436816 59.55974542804138 2 -1 -3
639 0 1 0 1.3634452444409004 5.755513558554616 57.94262317036498 1 -1 -3
1371 0 1 0 4.596483510945325 7.25122768054389 58.20254481462164 2 -1 -3
1927 0 2 0 4.195023460193693 5.631908570801933 61.216891094876416 1 1 -3
637 0 2 0 1.2306592830313487 5.838775051995859 58.879612604610756 1 -1 -3
2855 0 1 0 2.52140745990705 6.973815374277338 59.47311226059883 2 -1 -3
1928 0 1 0 3.602264434288205 4.887564412686202 61.16824002743538 1 1 -3
2848 0 2 0 1.498323685476629 0.20611194075687525 57.70895799117334 1 1 -3
3022 0 2 0 4.30873117689301 4.4024952305359815 57.216827068856176 2 -1 -3
3024 0 1 0 3.6326884479201613 4.311629338468995 56.52082621097841 2 -1 -3
1798 0 2 0 2.9624463709874145 8.856413097766822 61.995488010806554 2 0 -3
2312 0 1 0 2.5143551576405145 2.098108154041428 62.073605614715696 2 -1 -3
1799 0 1 0 2.0348864563867455 8.476415524557348 62.070840193086596 2 0 -3
401 0 1 0 0.5008099570496658 1.104410019560111 64.73844616498036 3 -2 -3
400 0 2 0 1.0754681071808685 1.9077163524175593 64.78879816052435 3 -2 -3
2600 0 1 0 1.7891613743217138 5.842017257979146 64.81802095201262 2 -1 -3
2353 0 2 0 0.7090310190543752 9.162695900367558 66.2133314736267 3 -1 -3
2599 0 2 0 2.018829149863793 6.598864041907592 65.42643194375539 2 -1 -3
776 0 1 0 4.29798065557331 1.9215235038321203 66.08389453308148 2 0 -3
2516 0 1 0 1.6935173059989719 4.876815765598031 66.79509035881723 2 -1 -3
402 0 1 0 0.5470859864728266 2.442999295611 65.43688749452156 3 -2 -3
2517 0 1 0 1.9527894116888684 4.328604600203127 68.20494951552732 2 -1 -3
777 0 1 0 2.9330237885178803 1.5887597157743463 65.26033541207964 2 0 -3
2840 0 1 0 3.989889021492106 6.461973962712564 68.30305647413414 3 0 -3
1596 0 1 0 4.228371092855915 0.05548583013724193 64.77216895925285 1 -1 -3
775 0 2 0 3.9018915425076925 1.7912764928115765 65.17941175028255 2 0 -3
2839 0 2 0 4.104995870975322 6.29052938635446 67.37024042142635 3 0 -3
2601 0 1 0 2.8169246562864387 6.322546752414557 65.96700702525003 2 -1 -3
2355 0 1 0 0.9127073022555713 8.229731524326292 65.91347632494015 3 -1 -3
2010 0 1 0 2.0195854488034577 3.601785831602892 63.60237531481376 2 1 -3
2009 0 1 0 3.5375707213960585 3.7379113893314853 63.66870099280986 2 1 -3
2008 0 2 0 2.7401939296895046 4.10854328019655 63.24374109930361 2 1 -3
2515 0 2 0 1.297097824260894 4.292119501374807 67.48825176986088 2 -1 -3
420 0 1 0 0.16299063434557412 6.903550588997037 62.70302237017103 2 0 -3
2841 0 1 0 4.704548158530824 7.01713154201571 67.00191922143159 3 0 -3
418 0 2 0 0.5486067680241395 7.769502791904684 62.51432573381345 2 0 -3
1800 0 1 0 3.440333384073971 8.185014149595347 62.53197479647363 2 0 -3
188 0 1 0 4.636249991135524 2.0745463734805125 72.4373810820451 1 0 -3
189 0 1 0 3.7124328213469457 2.2881612162197054 73.70293788203278 1 0 -3
187 0 2 0 4.615270664341563 2.2342678098069975 73.47245336261354 1 0 -3
702 0 1 0 4.412394892482092 8.757010726970535 72.46929597398581 1 1 -3
3286 0 2 0 1.2116208371556076 1.3326900621407896 70.92864310714819 3 -1 -3
1151 0 1 0 1.4448458951692824 8.597342312049362 69.0597304760464 2 0 -3
680 0 1 0 2.442200198678828 0.7115147869862645 69.60740294297636 1 -1 -3
3287 0 1 0 0.561357470154829 0.64410648485192 70.95628524512249 3 -1 -3
3289 0 2 0 4.473888906055772 2.4140878373418744 70.8102438846529 3 -1 -3
3288 0 1 0 0.8421074346765938 2.214499338467713 71.05956878847022 3 -1 -3
3290 0 1 0 3.9190655609900706 3.248250849203104 70.71063079907988 3 -1 -3
3291 0 1 0 4.0697791053430326 1.7781656990982078 70.22631229716546 3 -1 -3
2622 0 1 0 3.4558757843901957 5.42496734300736 70.11954593344235 1 0 -3
1305 0 1 0 2.844094278672163 6.956344874610232 73.74858339276044 1 -1 -3
1304 0 1 0 3.04470135656414 5.460492981242403 73.79194883473065 1 -1 -3
843 0 1 0 3.8891609043360353 7.839384759164617 70.59863908232715 1 -1 -3
2620 0 2 0 2.8231154483324885 4.666922700564861 69.9327903396966 1 0 -3
2621 0 1 0 2.072464514364681 4.611651524178258 70.58463436046377 1 0 -3
1152 0 1 0 1.990308881751904 7.166142358407861 69.22224329959185 2 0 -3
1124 0 1 0 1.266801413488113 4.453107589212425 73.09431455327906 1 -1 -3
2992 0 2 0 1.748205409666198 3.2813242238565135 74.56941874082207 0 0 -3
1123 0 2 0 0.6604953576937752 4.544508663167104 72.32313128486454 1 -1 -3
2215 0 2 0 4.624785702642917 5.088593589819343 73.16856622441338 1 0 -3
1125 0 1 0 0.5108896719514441 5.490610574586613 72.22210654919196 1 -1 -3
841 0 2 0 4.19150554387487 7.1412986777365575 69.98641488735876 1 -1 -3
1150 0 2 0 1.1573904981032592 7.649565996962249 69.34399771168998 2 0 -3
1727 0 1 0 0.4685667667940084 8.627065101168464 72.35950986587862 1 -1 -3
1409 0 1 0 0.48462979669919704 0.26976914095920146 74.56837822002973 2 -1 -3
1303 0 2 0 2.381254752031287 6.181309194963608 74.06736747580753 1 -1 -3
700 0 2 0 3.620846751703025 8.920686603835254 71.86843224867808 1 1 -3
679 0 2 0 3.353811370274456 0.4916733528866771 69.40703588021307 1 -1 -3
2216 0 1 0 4.780134212448178 4.11186749972785 73.24779224329306 1 0 -3
2993 0 1 0 1.1532391200004484 2.5329200993079897 74.66539165777347 0 0 -3
1022 0 1 0 0.4698623835894149 10.518729922264184 4.1326135111764755 1 0 -2
1268 0 1 0 4.753268732036103 11.632296185588586 3.1374305714377186 1 -2 -2
3143 0 1 0 0.5318948885060667 13.509433307463675 1.4125005437883693 1 0 -2
1544 0 1 0 2.8269464780296203 18.133819906458704 0.39322728947281477 1 -1 -2
3220 0 2 0 2.283747936881502 16.679187502160886 1.674032676879456 2 -1 -2
1203 0 1 0 2.7346207273580787 12.88274001292333 1.344748233386859 1 -1 -2
3142 0 2 0 1.3618755935266957 13.939839959321539 1.0458683901393169 1 0 -2
1202 0 1 0 4.061375781991156 12.611756014054007 0.6422320284481657 1 -1 -2
3222 0 1 0 2.6511390771351224 16.545363453746 2.596623285766096 2 -1 -2
1201 0 2 0 3.6122674215351793 12.421505844565715 1.4855006986734856 1 -1 -2
3144 0 1 0 1.4977860580128064 13.627011321996598 0.1427993946292412 1 0 -2
3221 0 1 0 1.8093806204038825 15.833587125542854 1.7635533487449804 2 -1 -2
2602 0 2 0 0.3360760955785861 9.659749094829593 0.2887683064440472 3 -1 -2
2393 0 1 0 2.5686212937323796 11.036247233393409 2.194267877301542 3 0 -2
2392 0 2 0 1.8674529945945562 10.380860204801799 2.412217628031585 3 0 -2
1221 0 1 0 2.540337373966723 9.807302484906641 4.558576165681445 2 -1 -2
992 0 1 0 1.3389518794645432 18.161381911406437 2.075297125914137 1 0 -2
2394 0 1 0 1.3606355919464428 10.146867773070657 1.617647496563069 3 0 -2
2962 0 2 0 4.470694496123047 16.878169393152316 4.093604814014493 2 -1 -2
2963 0 1 0 4.097155497839238 16.640561585942834 4.930628802695313 2 -1 -2
1267 0 2 0 4.6898541766297015 10.983580547645696 3.8153347096073813 1 -2 -2
99 0 1 0 3.0690384933623602 11.966841566239943 54.778005124689926 0 -1 -3
97 0 2 0 2.661927088383073 12.79156609649808 55.13867897396886 0 -1 -3
816 0 1 0 4.27518767316726 17.47925339022142 54.53577559627052 2 -2 -3
2294 0 1 0 0.17942253159675903 18.322760747772183 54.682699141736784 1 -1 -3
2785 0 2 0 1.5730683688169007 14.740270384226195 53.57040670761555 1 -2 -3
98 0 1 0 2.606027664024077 12.54859686722709 56.138611873638155 0 -1 -3
2718 0 1 0 0.45997598055510547 16.442317825001187 55.80235574081941 1 -2 -3
2787 0 1 0 2.2738495277682156 15.293954433384636 53.14105969194778 1 -2 -3
2786 0 1 0 1.956614162181509 14.008825599097127 54.07614097634088 1 -2 -3
2717 0 1 0 1.1677570242113522 15.334385145081267 55.29457250990335 1 -2 -3
17 0 1 0 0.9197857393404627 11.728313935900346 52.50249520986464 0 -2 -3
3139 0 2 0 2.827000427679737 9.65358375866016 55.85545816758362 2 -1 -3
1610 0 1 0 4.452958233965403 13.479865600693964 55.17295940703675 2 -1 -3
16 0 2 0 0.24673896653304236 11.103433320575212 52.79045697014295 0 -2 -3
1425 0 1 0 0.14208490559421644 11.774805304164449 55.84852999402925 2 0 -3
814 0 2 0 3.8603395988243507 18.216380065287144 54.04774846124945 2 -2 -3
2716 0 2 0 0.907488278677596 15.66473046438117 56.16318362919508 1 -2 -3
3141 0 1 0 3.7371324297464334 10.07300436792859 55.7310099904354 2 -1 -3
489 0 1 0 1.1640157390242234 13.428176580727593 61.33147016772293 2 -1 -3
1721 0 1 0 0.6494359365431351 11.546821637052298 60.05091525414257 1 -1 -3
487 0 2 0 1.8560982999777387 12.842056769155672 61.04691413542374 2 -1 -3
1 0 2 0 4.540409034238831 10.372690300793332 58.50726465335874 1 -1 -3
3 0 1 0 4.13306431510461 9.542922871459705 58.392958408393724 1 -1 -3
2926 0 2 0 2.246954633825242 17.16817769092137 62.2490782975569 1 -1 -3
872 0 1 0 0.30128322804770485 14.56125407672469 59.09749627645354 2 0 -3
3448 0 2 0 0.4211702341305781 15.551609283143167 60.234240258571134 1 -1 -3
2928 0 1 0 2.724658048812245 16.879095738506162 61.46651334555277 1 -1 -3
3449 0 1 0 0.49340679647940705 16.41585219895173 59.74443256474057 1 -1 -3
1912 0 2 0 3.25165692355826 16.52244105211248 57.44932932173547 1 -2 -3
2810 0 1 0 1.8990963655632387 13.076904984063932 58.19723682718962 3 -2 -3
1423 0 2 0 0.4778364315194961 11.039888956678588 56.507989735662875 2 0 -3
1913 0 1 0 2.4867686927135266 16.073551838899885 56.916083535780345 1 -2 -3
3305 0 1 0 3.017238753029986 18.366602872203277 57.30009648967316 2 0 -3
3426 0 1 0 3.3391741275737403 15.737119290970131 59.22324245666403 2 -1 -3
3425 0 1 0 2.812839582234178 14.842957563285392 60.34891611167053 2 -1 -3
3424 0 2 0 3.4316985629755696 15.590077029940876 60.1885943748565 2 -1 -3
2811 0 1 0 3.3493324511949694 12.231796729387291 58.260818764974644 3 -2 -3
2809 0 2 0 2.762368664403167 12.785452168804824 57.71947368342682 3 -2 -3
488 0 1 0 2.268600044492417 12.431898922821771 61.864071625489096 2 -1 -3
873 0 1 0 0.49069780013282527 14.562472332202773 57.52210134551928 2 0 -3
2806 0 2 0 0.5390603753574463 18.37514254087066 58.79835337466163 1 -1 -3
1914 0 1 0 3.9950786721117706 16.320140989435654 56.86721518236828 1 -2 -3
871 0 2 0 0.32556110776625447 13.905618161875983 58.28716949014593 2 0 -3
3140 0 1 0 2.3167304365185926 10.33606918100537 56.267074593147015 2 -1 -3
2514 0 1 0 4.557697585376426 11.655405270424747 62.960776450745335 2 -1 -3
2521 0 2 0 1.1355544238100346 11.246390402076257 64.75399763096743 1 -1 -3
2523 0 1 0 1.9586523855682458 11.259946460684127 64.27774628874984 1 -1 -3
1749 0 1 0 1.1216830239711946 12.78926804349516 66.0421342786425 2 -1 -3
2522 0 1 0 0.9586020012441416 10.405535740719344 65.1556646529086 1 -1 -3
3062 0 1 0 2.43623377192279 10.082967572753317 67.82167233636073 2 -1 -3
2512 0 2 0 3.575688888797695 11.650540256646318 62.95681360504882 2 -1 -3
3259 0 2 0 1.3912749685956793 16.405962557395505 66.95551255118262 3 -1 -3
1047 0 1 0 4.597249345457335 13.863374653388709 64.56104112551697 2 0 -3
1747 0 2 0 1.4085928707706323 13.4530442674709 66.65396175902723 2 -1 -3
893 0 1 0 3.1821539205922944 13.268967917705774 66.48420111456134 1 -2 -3
1748 0 1 0 0.9521689870927089 13.269282624694322 67.46908493202096 2 -1 -3
2927 0 1 0 2.883808270374089 17.80263001033756 62.763979850678886 1 -1 -3
1045 0 2 0 4.56105250649747 14.797721638778437 64.28018748843185 2 0 -3
2682 0 1 0 0.16650399328962054 14.700026805130443 64.37180235060276 2 -2 -3
1172 0 1 0 2.5923354595798873 14.719863405025414 63.93595388347458 1 -1 -3
1171 0 2 0 1.6836587894246566 14.754180628674638 63.558343382852264 1 -1 -3
3261 0 1 0 1.52593180250812 15.447828106757726 66.58522945121568 3 -1 -3
3317 0 1 0 4.615101874752359 18.19543631593738 67.72808263840425 2 0 -3
1480 0 2 0 3.2548955699094306 18.491794579202942 66.25221095238948 0 -1 -3
3061 0 2 0 2.7485437823298886 10.006952082117495 68.68393755860652 2 -1 -3
3260 0 1 0 2.0643754362071864 16.906637847209993 66.49484987480702 3 -1 -3
892 0 2 0 4.184719074937629 13.20525585513413 66.6943720237948 1 -2 -3
1173 0 1 0 1.7288577928258797 15.467543007981565 62.93784146162902 1 -1 -3
894 0 1 0 4.4961037574898315 13.948884659127463 67.2561429113864 1 -2 -3
2513 0 1 0 3.4026119719455683 10.708637292098357 62.79861438164485 2 -1 -3
2349 0 1 0 4.766089479006835 15.897277854079414 68.72213751060792 2 -1 -3
3063 0 1 0 3.692984158645413 10.120815816196592 68.64319635917391 2 -1 -3
3136 0 2 0 2.1158009272219145 15.95883902476363 72.14784324745527 3 -1 -3
2991 0 1 0 0.8493134375186162 11.011531711954012 71.8935287122544 3 0 -3
2989 0 2 0 0.8765635022633299 11.936705056364316 71.42499439283853 3 0 -3
1726 0 2 0 0.9306598616964252 9.482429623889606 72.62231447569559 1 -1 -3
1494 0 1 0 2.6507738879945077 12.756766182655458 70.76867169223586 1 -1 -3
1492 0 2 0 3.1847766998595075 12.901973119467925 69.96654791566891 1 -1 -3
2460 0 1 0 3.6978662104047966 12.692976057886586 73.62600924248089 2 -1 -3
1625 0 1 0 1.6739456500783207 13.055854732270582 72.72764759456905 1 0 -3
1493 0 1 0 2.8257733393271325 12.21607885612391 69.36278688366949 1 -1 -3
1624 0 2 0 1.9515669427364404 13.483173549188187 73.53071834259254 1 0 -3
2348 0 1 0 4.036898950563356 14.696605874556699 69.1893295932584 2 -1 -3
2990 0 1 0 0.4410534926167703 11.748922936045682 70.57337551994333 3 0 -3
3138 0 1 0 2.991590305822431 16.075433066253066 72.58233001815105 3 -1 -3
408 0 1 0 2.3244793106000943 16.57481422357229 70.37922758177415 1 -3 -3
2604 0 1 0 0.6486541221082938 9.580408006414476 74.36023390552253 3 -1 -3
406 0 2 0 2.8072736063648076 16.772438539575433 69.58351340787536 1 -3 -3
3137 0 1 0 1.5274630880178492 16.68668265619903 72.51670958248144 3 -1 -3
407 0 1 0 2.2247958176775042 16.515108515838342 68.83319450335607 1 -3 -3
701 0 1 0 3.875558443716286 9.794336176766482 71.46145279849054 1 1 -3
1626 0 1 0 2.0150688000255212 14.410524105085655 73.32157357709679 1 0 -3
2458 0 2 0 4.654480829390174 12.49214891634165 73.68230685839244 2 -1 -3
1499 0 1 0 4.727430374625124 17.010989859697425 74.3605446070956 2 -2 -3
1728 0 1 0 1.8095247864898931 9.294366165716433 72.28144024487501 1 -1 -3
1414 0 2 0 1.9607094069684459 21.697422796145194 1.2020584078608538 2 -2 -2
1941 0 1 0 4.459275296009561 23.990776840678578 0.49334526526515027 2 -2 -2
1415 0 1 0 2.6279416331548595 22.409551628748506 1.224136261637061 2 -2 -2
993 0 1 0 1.222951114196207 19.717908481001214 1.678148266590027 1 0 -2
991 0 2 0 0.8294095922903725 19.017072998235836 2.247920131090428 1 0 -2
1869 0 1 0 1.2306201701571597 20.939458219893748 4.598825391384906 2 -1 -2
1867 0 2 0 0.33509824535943594 20.720748225257594 4.33238165146234 2 -1 -2
387 0 1 0 4.08464158198965 19.5101745044354 1.845938393314991 1 0 -2
2770 0 2 0 2.6857501493421743 27.534930864427526 2.438818805564057 3 -1 -2
1543 0 2 0 3.5314036258944848 18.709884316287685 0.1183352225915605 1 -1 -2
451 0 2 0 3.3397599453945515 21.595438624520117 4.2333472669977485 1 -2 -2
1416 0 1 0 1.140138233522582 22.0862353351947 1.4775900883252622 2 -2 -2
1958 0 1 0 3.9990147813113395 23.392833311217508 5.319825026884235 3 0 -2
453 0 1 0 3.131121958598333 22.322427970000938 3.587491634685737 1 -2 -2
452 0 1 0 3.7327411798857 20.830680115883332 3.6393789317378227 1 -2 -2
1939 0 2 0 3.959843207954068 23.618278803377315 1.2490704505170744 2 -2 -2
2611 0 2 0 2.198467981116177 24.660210808558638 3.1296983430084886 1 -2 -2
2612 0 1 0 2.31136133930039 25.59681177599567 2.842040829370624 1 -2 -2
2613 0 1 0 2.729349180018861 24.635800199781738 3.9507688861568346 1 -2 -2
2270 0 1 0 0.37452140625932007 23.832498936835478 2.9060503082237865 1 -2 -2
1940 0 1 0 3.6533377158750797 24.370528850460126 1.8174518231011487 2 -2 -2
1868 0 1 0 0.3280618322690705 19.879127675169002 3.857645913395764 2 -1 -2
386 0 1 0 4.633648162203267 18.821623510233657 3.107884853891006 1 0 -2
1957 0 2 0 3.9239378128684237 24.31407493041577 5.176270031911578 3 0 -2
385 0 2 0 4.526834421864065 19.714361632569762 2.725383422194298 1 0 -2
79 0 2 0 0.03916387036515563 25.752635939386526 0.249104350103948 1 0 -2
2772 0 1 0 3.010269018237218 27.630720008693192 3.39681534995225 3 -1 -2
198 0 1 0 1.3846110105595113 21.500381993013306 54.689556661490926 2 -2 -3
3504 0 1 0 2.2711537508266733 19.083218533961325 53.984415915618435 2 -3 -3
2340 0 1 0 0.11446759336778657 25.794457892700855 54.91401331443729 2 0 -3
3502 0 2 0 1.5855185729642824 19.57688900804022 54.53588056606292 2 -3 -3
196 0 2 0 1.2736340852269705 22.28819881938214 55.293890184025685 2 -2 -3
197 0 1 0 1.1020738060458382 23.123765479808583 54.77451830709633 2 -2 -3
3503 0 1 0 2.0080264650478727 19.51482400664529 55.46535999233178 2 -3 -3
2338 0 2 0 0.08128782672916647 24.884781014077955 54.45146583170998 2 0 -3
2339 0 1 0 0.5623400388173192 25.002281711338526 53.65958117072356 2 0 -3
1111 0 2 0 0.10477520165649827 27.246270976169043 55.94590800931843 2 -1 -3
815 0 1 0 4.606958130282043 18.842348585099884 54.12899440532463 2 -2 -3
867 0 1 0 4.756266483395617 25.115444412552012 60.610350506941835 2 -1 -3
1600 0 2 0 3.2611045188468184 22.866105889413777 62.042158194464086 1 0 -3
3304 0 2 0 2.7715376563647376 19.342025799118574 57.42115481904279 2 0 -3
1602 0 1 0 3.9171336894073616 23.5970301581584 61.77077930402243 1 0 -3
2437 0 2 0 2.3912213703281457 22.59159328020156 57.7736734074253 2 -2 -3
2438 0 1 0 2.8194183825742773 21.740905665551892 57.746586459907334 2 -2 -3
3306 0 1 0 1.8734479584327035 19.267230674866852 57.84241299032094 2 0 -3
2376 0 1 0 3.9149061799188605 19.06324700428735 59.32248878523395 2 -1 -3
2803 0 2 0 1.191885064477591 22.519850028120302 60.208224941500035 2 0 -3
2805 0 1 0 1.4754029406062887 22.838397009462437 59.367198326930676 2 0 -3
2808 0 1 0 0.317560597085491 18.8543363934428 59.65370863323227 1 -1 -3
2627 0 1 0 0.38621938755582486 26.852088401411873 59.32550367917672 2 -2 -3
2439 0 1 0 2.090090682149055 22.672679135821557 56.87227931890699 2 -2 -3
3509 0 1 0 3.7084987340497153 27.15857665099353 61.56858870187431 2 -1 -3
865 0 2 0 4.661169617199874 25.22030702175476 61.57567697848247 2 -1 -3
3133 0 2 0 3.9380170232003606 24.979892965052024 58.54281708666031 2 -1 -3
2365 0 2 0 2.0547764112047946 26.858606589190334 58.24871944247508 2 -1 -3
2367 0 1 0 1.4560961751411778 26.892292736340526 57.48611533843002 2 -1 -3
1601 0 1 0 2.5921115909903922 22.767230238994753 61.328817510073016 1 0 -3
3135 0 1 0 3.4347598571788707 24.187299738254662 58.369106677227236 2 -1 -3
2804 0 1 0 0.507244442973917 23.114946267129394 60.61272501673748 2 0 -3
3134 0 1 0 3.4220881887237167 25.77662087665887 58.21851797516971 2 -1 -3
1968 0 1 0 0.8466863225005414 18.560812955764597 61.61451446148176 2 0 -3
2374 0 2 0 4.806829998590636 19.082862656661607 59.678769328746704 2 -1 -3
1966 0 2 0 0.6427909628688365 19.47557645411086 61.37456785184959 2 0 -3
2628 0 1 0 0.398122843901094 27.137233118731306 60.83433521881756 2 -2 -3
989 0 1 0 4.7016093916597 21.403678641399264 61.98350174989284 2 -2 -3
2366 0 1 0 2.4276899815069473 27.77318028702036 58.459049571254525 2 -1 -3
1326 0 1 0 1.1516089996677485 21.141610872221076 66.47557244532175 3 -1 -3
1561 0 2 0 3.5566824859387647 18.984554255433853 63.66058437222363 1 0 -3
3365 0 1 0 3.215283049516451 24.75399850382188 65.08214919966143 2 -1 -3
1324 0 2 0 2.066880752206606 21.40003352658958 66.8841677038025 3 -1 -3
3366 0 1 0 2.9418789695775476 24.243632422154075 63.72071077966689 2 -1 -3
3364 0 2 0 2.477004182941424 24.38062765076762 64.58851275018736 2 -1 -3
1562 0 1 0 2.829485156239144 19.67233800644049 63.681736133596345 1 0 -3
3014 0 1 0 1.6108501787673266 23.32964966250981 67.41185604789557 2 -1 -3
1325 0 1 0 2.11384420110264 21.116986601250865 67.81536267506603 3 -1 -3
856 0 2 0 1.803043923932055 20.995636419488246 63.78342902154431 1 -1 -3
1563 0 1 0 4.405735860954737 19.45175666412785 63.51084552386809 1 0 -3
3015 0 1 0 0.5525703466789336 24.551045174022708 67.49843943730046 2 -1 -3
1192 0 2 0 1.1797427358709727 26.791890485516166 64.60050254634766 2 -1 -3
3013 0 2 0 1.1043893059972631 23.892662239370374 68.01251040709975 2 -1 -3
857 0 1 0 2.527835919342134 21.730632605038682 63.530263249640754 1 -1 -3
1194 0 1 0 1.588631849624147 26.00907633445814 64.242767088196 2 -1 -3
3329 0 1 0 1.0920057310976343 27.601738749118336 63.00358149943006 2 -1 -3
858 0 1 0 1.3993109200374425 20.848063163502356 62.91341180896451 1 -1 -3
806 0 1 0 4.0333181118842845 26.66576948790081 65.96681394557453 2 -1 -3
805 0 2 0 3.5095230319260793 27.47879958197597 65.95249996074799 2 -1 -3
2096 0 1 0 3.8957607932532623 21.50405591433029 66.10854238488503 1 -1 -3
1193 0 1 0 1.9651937399500108 27.056925218853568 65.16179960699452 2 -1 -3
1481 0 1 0 2.678245708934447 19.234662969112925 66.41552311598333 0 -1 -3
807 0 1 0 2.8787713916850963 27.58401043823597 66.7374536714476 2 -1 -3
1482 0 1 0 3.4471229586592886 18.595341629634937 65.34787583985124 0 -1 -3
2095 0 2 0 4.773803005408879 21.80184636130599 65.827731184938 1 -1 -3
2237 0 1 0 0.1200116901674745 22.720543718518698 63.652975317021586 2 0 -3
640 0 2 0 3.840712616540988 19.38386808087417 70.7997489146305 2 -2 -3
772 0 2 0 2.9981013664772065 26.827099958509177 71.9772771659927 2 -1 -3
1807 0 2 0 2.1420956897907355 20.54069479343383 73.54883535110756 1 -1 -3
2363 0 1 0 2.3699651186905997 22.12889920869209 70.03053845037059 2 -1 -3
1592 0 1 0 2.209415599747577 24.684663241268854 69.4424506929004 1 -2 -3
774 0 1 0 2.190360795048795 26.548366119426497 72.44487164639779 2 -1 -3
2364 0 1 0 2.594712272612269 20.656053748053015 70.0765307550472 2 -1 -3
2362 0 2 0 1.96046392264597 21.285029121936812 69.77065423486795 2 -1 -3
2630 0 1 0 2.3558366532996167 23.285001391503627 72.09364331784201 2 -2 -3
1809 0 1 0 1.1357790433322688 20.466983879938464 73.47052869231248 1 -1 -3
1593 0 1 0 3.7022743244457375 24.41321254949871 69.15954072300838 1 -2 -3
1808 0 1 0 2.246081268881569 21.126753217830473 74.28872065767118 1 -1 -3
2631 0 1 0 2.665916051397734 21.838049526790314 72.6013305109443 2 -2 -3
2629 0 2 0 3.118554806415864 22.616820021225134 72.11891674063787 2 -2 -3
3483 0 1 0 4.236218229207323 26.532976351684376 69.29264609897261 2 0 -3
1591 0 2 0 3.1281973791933946 24.9072967049814 69.76276883343255 1 -2 -3
773 0 1 0 3.067023590876039 26.18619692594671 71.2549473050087 2 -1 -3
642 0 1 0 3.396341861857629 19.191763640946704 71.6487899357742 2 -2 -3
1540 0 2 0 0.09655615815041645 24.512684636974498 70.72158121558506 1 0 -3
3481 0 2 0 4.78120717783036 27.323349825692127 69.24550602329764 2 0 -3
2423 0 1 0 4.25149198688627 23.597777054139772 73.09362217480982 0 -2 -3
1545 0 1 0 3.0958389472967305 19.296357094201046 74.48232476190474 1 -1 -3
2916 0 1 0 4.6016573447757025 27.57243944786009 73.21148213134579 1 -1 -3
641 0 1 0 3.4280844320478443 18.7038694547548 70.22007544643526 2 -2 -3
81 0 1 0 0.646467860552966 26.50891594586499 74.98730586916653 1 0 -3
643 0 2 0 4.419418420236217 29.376083186299148 0.8889357255277541 2 -1 -2
644 0 1 0 4.2291486665034785 28.59608910974591 1.480718847195318 2 -1 -2
463 0 2 0 3.980982315488656 36.19743911149369 3.3780973415660656 1 -1 -2
2638 0 2 0 0.22537597719604546 28.85725599595905 2.6948186145598605 3 -2 -2
465 0 1 0 4.458031892467955 36.37834390126782 4.187933454661128 1 -1 -2
2110 0 2 0 3.2794076352152923 34.266181499518396 0.22936189942220503 2 -1 -2
1663 0 2 0 2.45767008928328 31.29042439249488 1.3711774392808938 2 -1 -2
1665 0 1 0 3.070292316935482 32.099999180849906 1.42974821403012 2 -1 -2
1664 0 1 0 3.0322626635510095 30.556778466679926 1.3365867391086077 2 -1 -2
2109 0 1 0 1.1545858894906744 31.466886145433453 0.2025676657694885 2 -2 -2
2771 0 1 0 1.88180424844133 28.088627850297307 2.333722649137109 3 -1 -2
2112 0 1 0 4.176529879866419 34.54885767431552 0.42757780818883667 2 -1 -2
3098 0 1 0 0.05088675945607582 33.04888653338308 52.60641900793526 2 -1 -3
258 0 1 0 3.5195492652451046 31.637390407963313 56.06713130210295 1 -2 -3
2635 0 2 0 0.374320972360515 30.141002235794826 55.145642013822965 2 -2 -3
2636 0 1 0 1.1359659721869102 30.65462943725644 55.45282956824251 2 -2 -3
1112 0 1 0 0.3735050457916003 28.111567821420334 55.631413235316586 2 -1 -3
3099 0 1 0 0.010810330708835149 33.25263547736504 54.210580629859116 2 -1 -3
3097 0 2 0 0.38765991694234836 33.54806306961259 53.35046447944656 2 -1 -3
3342 0 1 0 0.4380204640610104 35.457901720660146 53.197741077278295 1 -2 -3
3340 0 2 0 0.47268408325941225 36.409156631916254 53.29862107672228 1 -2 -3
942 0 1 0 4.7410861934136745 34.57063126589742 55.54239634100527 1 -1 -3
1776 0 1 0 0.2619010702895976 36.030111696802685 56.17128223546741 3 -2 -3
3439 0 2 0 3.5129119998118874 29.409036994296073 58.40397294912151 2 -1 -3
3441 0 1 0 3.5040397185157564 29.49308331791642 59.368084315813654 2 -1 -3
172 0 2 0 4.15899956694331 32.62188528671288 61.53480736905164 2 -2 -3
3440 0 1 0 4.413775044076977 29.118385343670564 58.11394146550933 2 -1 -3
174 0 1 0 3.419713358352745 32.26756532675274 61.011689875778316 2 -2 -3
3508 0 2 0 3.494415552073883 28.08742981625936 61.33454341172156 2 -1 -3
257 0 1 0 2.689718485666556 31.227425132603496 57.280589547739055 1 -2 -3
173 0 1 0 3.7753870358653607 32.921350202889954 62.38641688850448 2 -2 -3
2083 0 2 0 1.8341081123997292 31.573868322492036 60.27796992690669 2 -1 -3
1709 0 1 0 4.1494914773922345 35.10811320288951 58.01554296187856 3 -1 -3
1556 0 1 0 1.2478134957468037 35.426004598114844 60.926501248916004 2 -3 -3
2084 0 1 0 1.1602515769000505 30.883031146851206 60.13118280576954 2 -1 -3
1175 0 1 0 4.593072537939842 31.212838647503865 62.12150872895576 2 -2 -3
3330 0 1 0 1.83545155185442 28.149179511568622 61.77735573727189 2 -1 -3
1759 0 2 0 0.2660392034889297 33.74301540686988 58.94066233522737 3 -1 -3
1555 0 2 0 1.9734236021734373 35.12430425310677 61.48341335595361 2 -3 -3
2502 0 1 0 2.5163119722552096 33.83736048783492 57.042950271140434 2 -1 -3
2085 0 1 0 1.463687758946712 32.30324556905839 59.79504438650644 2 -1 -3
2501 0 1 0 1.8413519528524296 35.061740812743714 57.76315188561704 2 -1 -3
2500 0 2 0 2.5439316978518507 34.7821141465919 57.110423175454486 2 -1 -3
3328 0 2 0 0.9688518458044507 27.934991963368347 62.10046611279908 2 -1 -3
1557 0 1 0 2.4746948063743237 35.92854783632077 61.69525062462462 2 -3 -3
3510 0 1 0 4.122738164963797 28.611094789293706 61.86975890528286 2 -1 -3
256 0 2 0 2.584037146193207 31.754717366971626 56.49226420670366 1 -2 -3
1865 0 1 0 2.3558313391527363 29.22491152829466 68.44533643716842 2 -1 -3