LAMMPS (4 Feb 2025)
OMP_NUM_THREADS environment is not set. Defaulting to 1 thread. (src/comm.cpp:99)
  using 1 OpenMP thread(s) per MPI task
# LAMMPS script for running NVT simulation

units       metal
dimension   3
boundary    p p p
atom_style  full
atom_modify map yes

newton      on

read_data   ../start.lammps-data
Reading data file ...
  orthogonal box = (0 0 0) to (155.54808 149.67621 151.07317)
  16 by 8 by 8 MPI processor grid
  reading atoms ...
  11640 atoms
  reading velocities ...
  11640 velocities
Finding 1-2 1-3 1-4 neighbors ...
  special bond factors lj:    0        0        0       
  special bond factors coul:  0        0        0       
     0 = max # of 1-2 neighbors
     0 = max # of 1-3 neighbors
     0 = max # of 1-4 neighbors
     1 = max # of special neighbors
  special bonds CPU = 5.897 seconds
  read_data CPU = 6.096 seconds

pair_style  symmetrix/mace
pair_coeff  * * ../../../00-common/models/ch2o-dens-inv_swa-1-6-8.json C H O
Loading MACE model from '../../../00-common/models/ch2o-dens-inv_swa-1-6-8.json' ... success
  mapping LAMMPS type 1 (C) to MACE type 1
  mapping LAMMPS type 2 (H) to MACE type 0
  mapping LAMMPS type 3 (O) to MACE type 2

variable t equal step

group graphene type 1
8640 atoms in group graphene
group H2O type 2 3
3000 atoms in group H2O

thermo 1000

######### NVT equilibration for 80 ps #############

dump DUMP1 all atom 100 nvt_equi.lammpstrj
timestep 0.001
fix NVT1 graphene nvt temp 300 300 0.1
fix NVT2 H2O nvt temp 300 300 0.1
run 80000
Neighbor list info ...
  update: every = 1 steps, delay = 0 steps, check = yes
  max neighbors/atom: 2000, page size: 100000
  master list distance cutoff = 8
  ghost atom cutoff = 8
  binsize = 4, bins = 39 38 38
  1 neighbor lists, perpetual/occasional/extra = 1 0 0
  (1) pair symmetrix/mace, perpetual
      attributes: full, newton on
      pair build: full/bin
      stencil: full/bin/3d
      bin: standard
Per MPI rank memory allocation (min/avg/max) = 5.921 | 6.238 | 8.661 Mbytes
   Step          Temp          E_pair         E_mol          TotEng         Press     
         0   78.173347     -1810172        0             -1810054.4     -1467.7264    
      1000   82.040354     -1810169.5      0             -1810046.1     -1511.2474    
      2000   145.89331     -1810083.6      0             -1809864.1     -1829.7186    
      3000   289.24306     -1809876.8      0             -1809441.6     -2256.9931    
      4000   311.24216     -1809857.8      0             -1809389.5     -2152.2211    
      5000   296.03973     -1809865.3      0             -1809419.9     -2052.9233    
      6000   305.16326     -1809850.9      0             -1809391.8     -2002.9979    
      7000   308.32665     -1809863.4      0             -1809399.5     -1985.4379    
      8000   294.15263     -1809870.2      0             -1809427.6     -1937.1417    
      9000   304.89857     -1809853        0             -1809394.3     -1957.1019    
     10000   299.81072     -1809856.9      0             -1809405.8     -1913.3884    
     11000   297.12729     -1809866.4      0             -1809419.3     -1853.4657    
     12000   307.43726     -1809851        0             -1809388.5     -1870.9638    
     13000   301.8896      -1809869.7      0             -1809415.6     -1803.9151    
     14000   302.55519     -1809859.3      0             -1809404.1     -1749.0868    
     15000   307.40103     -1809853.8      0             -1809391.3     -1789.7819    
     16000   297.87349     -1809862        0             -1809413.8     -1732.1047    
     17000   299.1586      -1809855.3      0             -1809405.2     -1718.2155    
     18000   299.43717     -1809863.2      0             -1809412.7     -1706.6136    
     19000   302.91084     -1809860.2      0             -1809404.5     -1694.6866    
     20000   304.58825     -1809857.7      0             -1809399.5     -1676.9423    
     21000   294.62152     -1809864.9      0             -1809421.7     -1668.3931    
     22000   298.67902     -1809860.2      0             -1809410.9     -1694.7807    
     23000   304.77021     -1809856.9      0             -1809398.4     -1644.5304    
     24000   296.95245     -1809867.8      0             -1809421.1     -1611.5535    
     25000   295.90237     -1809859.8      0             -1809414.6     -1629.4618    
     26000   302.57372     -1809863.7      0             -1809408.5     -1602.4436    
     27000   299.07079     -1809868.5      0             -1809418.6     -1601.8802    
     28000   301.81894     -1809860.4      0             -1809406.3     -1583.7441    
     29000   299.22528     -1809862.2      0             -1809412.1     -1584.0676    
     30000   303.98667     -1809868.9      0             -1809411.6     -1559.9391    
     31000   300.54328     -1809864.3      0             -1809412.1     -1531.5515    
     32000   298.99005     -1809870.1      0             -1809420.2     -1540.2353    
     33000   302.19259     -1809862.1      0             -1809407.5     -1543.1333    
     34000   298.83889     -1809871.2      0             -1809421.6     -1514.8139    
     35000   297.82652     -1809863.9      0             -1809415.9     -1520.0076    
     36000   304.08765     -1809868        0             -1809410.5     -1528.4966    
     37000   296.44856     -1809868.1      0             -1809422.1     -1521.1305    
     38000   304.97185     -1809868.1      0             -1809409.3     -1498.0227    
     39000   301.2908      -1809868.4      0             -1809415.2     -1510.9416    
     40000   298.46806     -1809868.7      0             -1809419.6     -1493.7542    
     41000   299.90727     -1809869.9      0             -1809418.7     -1489.7624    
     42000   302.41348     -1809864.9      0             -1809409.9     -1479.0429    
     43000   297.73335     -1809872.7      0             -1809424.8     -1483.1928    
     44000   299.3912      -1809868.4      0             -1809418       -1479.6564    
     45000   302.46242     -1809873.9      0             -1809418.9     -1465.792     
     46000   298.81391     -1809870        0             -1809420.4     -1468.5258    
     47000   305.06793     -1809874        0             -1809415.1     -1457.1502    
     48000   303.76667     -1809871.3      0             -1809414.2     -1445.0469    
     49000   300.41834     -1809872.1      0             -1809420.1     -1445.501     
     50000   301.25694     -1809870.3      0             -1809417.1     -1465.3545    
     51000   297.34874     -1809872        0             -1809424.6     -1457.1289    
     52000   299.84422     -1809866        0             -1809414.9     -1459.0239    
     53000   301.57555     -1809871.3      0             -1809417.5     -1453.2282    
     54000   300.08885     -1809871        0             -1809419.5     -1447.1218    
     55000   301.05815     -1809870        0             -1809417       -1454.5883    
     56000   297.88274     -1809870.4      0             -1809422.3     -1432.0503    
     57000   300.81144     -1809864.7      0             -1809412.2     -1439.2209    
     58000   299.06706     -1809873.2      0             -1809423.2     -1452.0086    
     59000   298.35712     -1809864.2      0             -1809415.3     -1449.8314    
     60000   298.1484      -1809868.1      0             -1809419.5     -1439.1891    
     61000   299.4074      -1809876.3      0             -1809425.8     -1431.9805    
     62000   298.47613     -1809867.1      0             -1809418       -1418.6082    
     63000   298.13195     -1809871.4      0             -1809422.9     -1435.2716    
     64000   300.11348     -1809865.4      0             -1809413.9     -1414.3448    
     65000   297.97248     -1809866        0             -1809417.7     -1440.0317    
     66000   302.35076     -1809864.1      0             -1809409.2     -1419.4731    
     67000   295.97826     -1809872.3      0             -1809427       -1451.2303    
     68000   299.57501     -1809870.7      0             -1809420       -1437.291     
     69000   304.68369     -1809868.5      0             -1809410.1     -1425.1832    
     70000   296.30379     -1809869.2      0             -1809423.4     -1438.5708    
     71000   300.26437     -1809871.9      0             -1809420.1     -1419.865     
     72000   304.91125     -1809872.5      0             -1809413.8     -1421.5434    
     73000   297.70158     -1809869.9      0             -1809422       -1439.1704    
     74000   303.90177     -1809870.3      0             -1809413.1     -1429.273     
     75000   299.84114     -1809873.2      0             -1809422.1     -1429.6427    
     76000   298.99511     -1809878.9      0             -1809429.1     -1423.0425    
     77000   301.27379     -1809868.5      0             -1809415.2     -1434.4497    
     78000   302.32985     -1809871        0             -1809416.2     -1403.5096    
     79000   305.85566     -1809874.1      0             -1809414       -1414.8782    
     80000   298.70602     -1809874.5      0             -1809425.2     -1407.8152    
Loop time of 60322.2 on 1024 procs for 80000 steps with 11640 atoms

Performance: 0.115 ns/day, 209.452 hours/ns, 1.326 timesteps/s, 15.437 katom-step/s
100.0% CPU use with 1024 MPI tasks x 1 OpenMP threads

MPI task timing breakdown:
Section |  min time  |  avg time  |  max time  |%varavg| %total
---------------------------------------------------------------
Pair    | 679.28     | 5475       | 24366      |6867.3 |  9.08
Bond    | 0.003865   | 0.0075651  | 0.014323   |   2.2 |  0.00
Neigh   | 0.029439   | 0.14254    | 1.2045     |  48.1 |  0.00
Comm    | 10.968     | 1948.7     | 7803       |4091.1 |  3.23
Output  | 0.59621    | 5.4845     | 10.65      | 128.0 |  0.01
Modify  | 32809      | 52885      | 59591      |2763.6 | 87.67
Other   |            | 7.914      |            |       |  0.01

Nlocal:        11.3672 ave         268 max           0 min
Histogram: 888 1 110 8 3 3 3 0 4 4
Nghost:         96.998 ave        1528 max           0 min
Histogram: 749 106 141 8 6 4 3 4 1 2
Neighs:              0 ave           0 max           0 min
Histogram: 1024 0 0 0 0 0 0 0 0 0
FullNghs:      1183.48 ave       52302 max           0 min
Histogram: 995 7 6 4 2 1 2 2 2 3

Total # of neighbors = 1211882
Ave neighs/atom = 104.11357
Ave special neighs/atom = 0
Neighbor list builds = 3800
Dangerous builds = 0

write_restart nvt_equi.restart.*
System init for write_restart ...
write_data nvt_equi_final.lammps-data
System init for write_data ...

Total wall time: 16:45:49
