LAMMPS (4 Feb 2025)
OMP_NUM_THREADS environment is not set. Defaulting to 1 thread. (src/comm.cpp:99)
  using 1 OpenMP thread(s) per MPI task
# LAMMPS script for continuing NVT simulation

atom_modify map yes
newton      on

read_restart nvt_prod.restart.880000
Reading restart file ...
  restart file = 4 Feb 2025, LAMMPS = 4 Feb 2025
  restoring atom style full from restart
  orthogonal box = (0 0 0) to (153.85399 148.04607 151.07317)
  16 by 8 by 8 MPI processor grid
  pair style symmetrix/mace stores no restart info
  11640 atoms
Finding 1-2 1-3 1-4 neighbors ...
  special bond factors lj:    0        0        0       
  special bond factors coul:  0        0        0       
     0 = max # of 1-2 neighbors
     0 = max # of 1-3 neighbors
     0 = max # of 1-4 neighbors
     1 = max # of special neighbors
  special bonds CPU = 4.751 seconds
  read_restart CPU = 4.905 seconds

pair_style  symmetrix/mace
pair_coeff  * * ../../../00-common/models/ch2o-dens-inv_swa-1-6-8.json C H O
Loading MACE model from '../../../00-common/models/ch2o-dens-inv_swa-1-6-8.json' ... success
  mapping LAMMPS type 1 (C) to MACE type 1
  mapping LAMMPS type 2 (H) to MACE type 0
  mapping LAMMPS type 3 (O) to MACE type 2

group graphene type 1
8640 atoms in group graphene
group H2O type 2 3
3000 atoms in group H2O

thermo 1000

######### NVT production for 80 ps #############

dump DUMP1 all atom 100 nvt_prod_11.lammpstrj
timestep 0.001
fix NVT1 graphene nvt temp 300 300 0.1
Resetting global fix info from restart file:
  fix style: nvt, fix ID: NVT1
fix NVT2 H2O nvt temp 300 300 0.1
Resetting global fix info from restart file:
  fix style: nvt, fix ID: NVT2
run 80000
All restart file global fix info was re-assigned
Neighbor list info ...
  update: every = 1 steps, delay = 0 steps, check = yes
  max neighbors/atom: 2000, page size: 100000
  master list distance cutoff = 8
  ghost atom cutoff = 8
  binsize = 4, bins = 39 38 38
  1 neighbor lists, perpetual/occasional/extra = 1 0 0
  (1) pair symmetrix/mace, perpetual
      attributes: full, newton on
      pair build: full/bin
      stencil: full/bin/3d
      bin: standard
Per MPI rank memory allocation (min/avg/max) = 5.921 | 6.224 | 8.071 Mbytes
   Step          Temp          E_pair         E_mol          TotEng         Press     
    880000   297.8784      -1809922.6      0             -1809474.4      30.264478    
    881000   303.51895     -1809929.7      0             -1809473.1      37.640858    
    882000   302.77297     -1809921.5      0             -1809466        33.096192    
    883000   298.6072      -1809926.9      0             -1809477.7      43.895898    
    884000   300.60508     -1809930        0             -1809477.7      120.56234    
    885000   300.95857     -1809927        0             -1809474.2      92.895613    
    886000   296.94228     -1809928        0             -1809481.3      110.78445    
    887000   300.0923      -1809932.8      0             -1809481.3      118.3242     
    888000   302.5329      -1809928.4      0             -1809473.2      98.87249     
    889000   298.99561     -1809929.8      0             -1809480        80.890619    
    890000   298.53595     -1809930.7      0             -1809481.6      92.478313    
    891000   300.33004     -1809931.3      0             -1809479.5      13.496432    
    892000   297.5252      -1809930.3      0             -1809482.7      34.926699    
    893000   302.21391     -1809926.6      0             -1809471.9      74.275741    
    894000   298.95815     -1809925.5      0             -1809475.8      55.53245     
    895000   300.07219     -1809928.9      0             -1809477.4      30.427759    
    896000   297.84648     -1809924.2      0             -1809476.1      51.296127    
    897000   297.08236     -1809932        0             -1809485.1      58.493007    
    898000   296.34959     -1809929.5      0             -1809483.6      113.30849    
    899000   297.40404     -1809927.3      0             -1809479.8      88.484092    
    900000   298.29542     -1809928.9      0             -1809480.1      81.313887    
    901000   299.24046     -1809923.5      0             -1809473.3      93.516332    
    902000   300.4659      -1809927.4      0             -1809475.4      85.60487     
    903000   300.80465     -1809929.8      0             -1809477.3      69.793863    
    904000   299.13044     -1809930.8      0             -1809480.7      75.964343    
    905000   299.85376     -1809930.9      0             -1809479.8      21.215525    
    906000   299.02155     -1809931.1      0             -1809481.3      2.0489253    
    907000   301.27242     -1809928        0             -1809474.8      19.53821     
    908000   302.76203     -1809930.4      0             -1809475        41.749797    
    909000   302.94111     -1809927.6      0             -1809471.8      72.405532    
    910000   299.57768     -1809929.8      0             -1809479.1      60.514357    
    911000   297.01091     -1809926.5      0             -1809479.7      54.641663    
    912000   299.5945      -1809928.6      0             -1809477.9      93.685396    
    913000   303.52169     -1809927.5      0             -1809470.9      135.74882    
    914000   300.78307     -1809925.1      0             -1809472.6      95.589195    
    915000   298.60616     -1809931.1      0             -1809481.8      77.898316    
    916000   299.9517      -1809929.8      0             -1809478.5      55.664235    
    917000   295.95017     -1809931.6      0             -1809486.4      57.308495    
    918000   302.66125     -1809924.1      0             -1809468.7      24.127011    
    919000   299.32388     -1809931.5      0             -1809481.2      36.139466    
    920000   298.74669     -1809926.6      0             -1809477.1      40.7147      
    921000   303.14791     -1809922.9      0             -1809466.8      88.339869    
    922000   299.87518     -1809925.7      0             -1809474.6      96.098693    
    923000   302.26692     -1809925.2      0             -1809470.4      106.10652    
    924000   299.12488     -1809920.7      0             -1809470.6      113.794      
    925000   302.66526     -1809929.2      0             -1809473.8      76.074911    
    926000   298.90958     -1809937.6      0             -1809487.9      68.374555    
    927000   302.39407     -1809929        0             -1809474        52.265324    
    928000   299.88369     -1809928.9      0             -1809477.7      64.176424    
    929000   299.94884     -1809927.9      0             -1809476.6      107.12383    
    930000   301.44659     -1809925.9      0             -1809472.4      12.626706    
    931000   298.24504     -1809929.8      0             -1809481.1      73.070006    
    932000   299.20284     -1809933.6      0             -1809483.5      36.858171    
    933000   300.71005     -1809930.3      0             -1809477.8      41.964522    
    934000   298.40293     -1809929.5      0             -1809480.6      30.868807    
    935000   298.41582     -1809926.8      0             -1809477.9      64.311827    
    936000   297.65342     -1809931        0             -1809483.2      46.42943     
    937000   297.30059     -1809927.6      0             -1809480.3      100.25638    
    938000   296.41043     -1809926.7      0             -1809480.8      112.66217    
    939000   300.80938     -1809926.3      0             -1809473.7      102.47593    
    940000   299.97327     -1809927.8      0             -1809476.5      81.6059      
    941000   299.50246     -1809927.9      0             -1809477.3      53.78193     
    942000   300.82068     -1809925        0             -1809472.5      76.103497    
    943000   300.9296      -1809921.5      0             -1809468.8      98.579202    
    944000   302.01447     -1809924.4      0             -1809470.1      88.300267    
    945000   298.95693     -1809929.1      0             -1809479.4      48.457482    
    946000   297.15213     -1809930.4      0             -1809483.4      53.165655    
    947000   300.10256     -1809929        0             -1809477.5      20.838829    
    948000   303.12788     -1809931.7      0             -1809475.7      86.813804    
    949000   296.47617     -1809929        0             -1809483        91.337591    
    950000   298.96654     -1809928.9      0             -1809479.1      81.698788    
    951000   302.19335     -1809922.2      0             -1809467.6      33.167362    
    952000   297.22757     -1809928.3      0             -1809481.1      16.188973    
    953000   302.83336     -1809927.5      0             -1809471.9      12.666058    
    954000   304.3437      -1809930.3      0             -1809472.4      24.103759    
    955000   298.41137     -1809930.6      0             -1809481.6      95.215836    
    956000   300.70183     -1809930.6      0             -1809478.3      116.67047    
    957000   299.37018     -1809935.7      0             -1809485.3      91.378976    
    958000   300.86931     -1809923.1      0             -1809470.5      70.833829    
    959000   300.78745     -1809928.3      0             -1809475.7      47.590285    
    960000   300.37091     -1809927.9      0             -1809476        49.454921    
Loop time of 58452.2 on 1024 procs for 80000 steps with 11640 atoms

Performance: 0.118 ns/day, 202.959 hours/ns, 1.369 timesteps/s, 15.931 katom-step/s
100.0% CPU use with 1024 MPI tasks x 1 OpenMP threads

MPI task timing breakdown:
Section |  min time  |  avg time  |  max time  |%varavg| %total
---------------------------------------------------------------
Pair    | 1384.2     | 5566.5     | 16491      |4903.9 |  9.52
Bond    | 0.0050792  | 0.0078336  | 0.01326    |   1.6 |  0.00
Neigh   | 0.061233   | 0.13833    | 0.80779    |  36.8 |  0.00
Comm    | 28.258     | 1943.3     | 7750.5     |2982.7 |  3.32
Output  | 0.67235    | 5.3643     | 10.494     | 126.5 |  0.01
Modify  | 38968      | 50929      | 57009      |1965.5 | 87.13
Other   |            | 7.59       |            |       |  0.01

Nlocal:        11.3672 ave         233 max           0 min
Histogram: 885 2 71 45 2 3 5 3 3 5
Nghost:        78.6699 ave        1473 max           0 min
Histogram: 814 131 42 10 8 6 5 3 3 2
Neighs:              0 ave           0 max           0 min
Histogram: 1024 0 0 0 0 0 0 0 0 0
FullNghs:      1218.66 ave       44724 max           0 min
Histogram: 886 114 4 1 6 4 0 3 3 3

Total # of neighbors = 1247912
Ave neighs/atom = 107.20893
Ave special neighs/atom = 0
Neighbor list builds = 3654
Dangerous builds = 0

write_restart nvt_prod.restart.*
System init for write_restart ...
write_data nvt_prod_final.lammps-data
System init for write_data ...

Total wall time: 16:14:37
