LAMMPS data file via write_data, version 4 Feb 2025, timestep = 960000, units = metal

11640 atoms
3 atom types

0 153.85399199999998 xlo xhi
0 148.04607282849756 ylo yhi
0 151.07316997686289 zlo zhi

Masses

1 12.01099999691024
2 1.007999999740698
3 15.99899999588435

Atoms # full

10730 0 3 0 8.178124941068775 12.412514221102173 1.9499848015106531 8 -2 16
8820 0 2 0 7.618177891024213 12.52723726845678 1.126432108784622 8 -2 16
8819 0 2 0 7.9315060052323885 13.295328334369726 2.3921242388944624 8 -2 16
9112 0 2 0 4.796221589871144 16.869431592090507 1.25328647270189 8 -2 16
10876 0 3 0 4.163327246085874 17.567566051149985 1.5364188683612194 8 -2 16
9111 0 2 0 3.326960406958205 17.330053795317472 1.1369253557001644 8 -2 16
10868 0 3 0 6.961103976170511 14.853748177089997 3.2806574880083974 8 -2 16
10861 0 3 0 5.578279015305033 15.37825575898744 0.7503769414811026 8 -2 16
9095 0 2 0 7.5611012714410855 15.489130608361913 2.9543391394814935 8 -2 16
9096 0 2 0 6.294204860095273 14.928357575415644 2.5717709598242324 8 -2 16
10673 0 3 0 9.163099494469117 16.075188875515515 2.191730718976155 8 -2 16
8705 0 2 0 9.265569093736767 17.058363414742022 2.0895928478503123 8 -2 16
8706 0 2 0 8.817335446509114 15.753116180554354 1.3187628860219802 8 -2 16
9082 0 2 0 6.428974506792486 15.64973160474999 0.3568694655430028 8 -2 16
9081 0 2 0 5.075001622972638 14.797148150669882 0.15423585148939808 8 -2 16
9696 0 2 0 7.2264310219392245 16.745548395942755 5.796957985034425 8 -2 16
11168 0 3 0 6.349833293521668 16.975811791337193 5.440284750777257 8 -2 16
9695 0 2 0 6.20338598021881 16.273722776684814 4.766477243458793 8 -2 16
359 0 1 0 9.294498453315965 8.012620212445372 141.5614285108959 8 -2 15
8528 0 1 0 2.2544649317106376 13.014899833526096 141.25606376326192 9 -2 15
122 0 1 0 4.351705898938901 11.760803183343343 141.43997684709072 8 -2 15
121 0 1 0 2.9341929750261917 11.783175090533605 141.43387014469707 8 -2 15
8527 0 1 0 0.7937435972166313 13.008488149635195 141.5420748498625 9 -2 15
8522 0 1 0 0.0911976558454603 11.778281138479297 141.61886521466394 9 -2 15
123 0 1 0 5.048489892405729 10.542739594531161 141.53604841097433 8 -2 15
127 0 1 0 5.086054202235869 12.943192158998986 141.25162284365163 8 -2 15
124 0 1 0 6.460720366990613 10.545899085200197 141.49050237207274 8 -2 15
362 0 1 0 8.63841380042313 11.71311356371918 141.28039431969063 8 -2 15
367 0 1 0 9.322489071067839 12.956633008990435 141.17664239150633 8 -2 15
128 0 1 0 6.497420075539505 12.954810207936772 141.2234416652341 8 -2 15
361 0 1 0 7.2029913581282745 11.736565338407862 141.35047714040775 8 -2 15
357 0 1 0 7.1830113737557335 9.302994668033325 141.5735842215321 8 -2 15
358 0 1 0 8.587328398532213 9.290844179411929 141.46765406195374 8 -2 15
363 0 1 0 9.375465781339557 10.476334508692638 141.3295957607954 8 -2 15
130 0 1 0 4.342165612128505 16.682195217706752 140.94666515686814 8 -2 15
129 0 1 0 2.9358242626763285 16.62379162842343 141.07317207690417 8 -2 15
8536 0 1 0 2.193251655597092 17.882756289190215 141.2108483707468 9 -2 15
126 0 1 0 4.422683596478605 14.180283906791711 141.0529576543609 8 -2 15
8532 0 1 0 2.2677712008859157 15.419622510267208 141.20138653036526 9 -2 15
125 0 1 0 2.9810166767482436 14.170224995216486 141.0808388044214 8 -2 15
8535 0 1 0 0.7528480184314738 17.90186304431032 141.34828653831084 9 -2 15
8531 0 1 0 0.8281258160410846 15.441831877244969 141.49328864010621 9 -2 15
8530 0 1 0 0.08121957867133339 16.65596852423623 141.5289730577073 9 -2 15
8526 0 1 0 0.0847532561465015 14.237577133167836 141.63008017467203 9 -2 15
135 0 1 0 5.06804025887611 17.86911495930778 140.92532906170362 8 -2 15
131 0 1 0 5.072507840235844 15.445515647270357 140.9350052483637 8 -2 15
132 0 1 0 6.482477519392737 15.457171647692116 140.91354196882767 8 -2 15
369 0 1 0 7.234812987785673 16.647266154060215 140.8692546973413 8 -2 15
365 0 1 0 7.144865572371612 14.18992296997867 141.0264061849097 8 -2 15
370 0 1 0 8.685975133093628 16.658262689276896 140.77155721827145 8 -2 15
371 0 1 0 9.323248795841476 15.37883912731517 140.8505293065917 8 -2 15
366 0 1 0 8.560382517606214 14.148676217787754 141.0143552232007 8 -2 15
136 0 1 0 6.507262834864555 17.88782146208394 140.82948769721003 8 -2 15
375 0 1 0 9.388563690217222 17.860410773118222 140.73347244429556 8 -2 15
106 0 1 0 4.34996639661721 1.9109974454379752 142.11800018809987 8 -2 15
105 0 1 0 2.9355337305828475 1.9205227325003984 141.98540947554233 8 -2 15
8512 0 1 0 2.237268644463483 3.148346957480453 142.08238849998764 9 -2 15
8508 0 1 0 2.1826995399598466 0.7056177886610387 141.8709904297063 9 -2 15
110 0 1 0 4.32490483738735 4.408461910207355 142.10648184531004 8 -2 15
109 0 1 0 2.8762556065818017 4.417494233990549 142.186689972153 8 -2 15
8507 0 1 0 0.7633388873193176 0.7032986528878673 141.72152544217738 9 -2 15
8511 0 1 0 0.7893788610098195 3.1612287024240526 141.88305022324053 9 -2 15
8506 0 1 0 0.07233072622855792 1.943595357266159 141.78610791329578 9 -2 15
8510 0 1 0 0.05621121941047136 4.3994923002662505 141.9732254751155 9 -2 15
107 0 1 0 5.022626742140852 0.6664959689861145 142.19415768315008 8 -2 15
111 0 1 0 5.073735560831614 3.148854681691662 142.20506659689562 8 -2 15
108 0 1 0 6.445657216454974 0.6595176270316777 142.32774995638906 8 -2 15
112 0 1 0 6.472841281955661 3.1220088220064386 142.29158381305814 8 -2 15
345 0 1 0 7.20634924396356 1.8570859799771242 142.32284198691596 8 -2 15
347 0 1 0 9.357307712700866 0.6214297498230692 142.32983873238274 8 -2 15
351 0 1 0 9.300439466899954 3.0975258782324846 142.28064116352255 8 -2 15
346 0 1 0 8.597185825438482 1.8430982588575604 142.3826290923806 8 -2 15
349 0 1 0 7.208627861518956 4.373462446995588 142.27222949669874 8 -2 15
350 0 1 0 8.63664328933891 4.386320747000633 142.24689832336858 8 -2 15
114 0 1 0 4.3628507060196435 6.8938793941218925 142.08810216178185 8 -2 15
113 0 1 0 2.8945497152787913 6.84088838966611 142.00564821794242 8 -2 15
8520 0 1 0 2.1520309706170706 8.062240207530799 141.87830537276096 9 -2 15
8516 0 1 0 2.1654270746621926 5.673660841931188 142.14473598672438 9 -2 15
8515 0 1 0 0.741961700255142 5.667975188120111 141.94922406853988 9 -2 15
8519 0 1 0 0.7414167946260718 8.097845906533953 141.82585038064153 9 -2 15
8514 0 1 0 0.03760862633232147 6.873922131703251 141.801047601886 9 -2 15
115 0 1 0 5.030059778812317 5.620792552096761 142.2012280803973 8 -2 15
119 0 1 0 5.058361007706713 8.087038513686789 141.9600681734517 8 -2 15
116 0 1 0 6.464464958518171 5.570320660159312 142.07840202404563 8 -2 15
120 0 1 0 6.442124821642733 8.09172213225126 141.88595096171386 8 -2 15
353 0 1 0 7.136202508588638 6.821263245545954 141.97287296678815 8 -2 15
355 0 1 0 9.323003075822907 5.565278960765066 141.92602428216583 8 -2 15
354 0 1 0 8.592604347193458 6.808462166528699 141.81524215830908 8 -2 15
9825 0 2 0 7.9387889122757835 5.176001743123935 145.55384508744217 8 -2 15
11233 0 3 0 8.095305830171474 5.936056065820637 145.02335791790222 8 -2 15
9826 0 2 0 8.880242202457127 5.808475304648713 144.48371327352365 8 -2 15
9619 0 2 0 7.384869495368277 7.882315026382504 145.08213172710325 8 -2 15
11130 0 3 0 7.433435582119859 8.833882878940136 144.88565033321447 8 -2 15
9620 0 2 0 8.33491119365732 9.010939528470333 144.70724903815125 8 -2 15
8524 0 1 0 2.1922229895932035 10.558769199388522 141.6361394242515 9 -2 15
118 0 1 0 4.334435282795465 9.355810671465543 141.74972346487533 8 -2 15
117 0 1 0 2.914377232548703 9.312715414420499 141.86999612735409 8 -2 15
9476 0 2 0 1.4523941467162342 13.639430254211126 143.7568952440917 8 -2 15
10352 0 2 0 4.450078361562475 12.02397698217455 144.6578484598368 8 -2 15
11496 0 3 0 4.320234739515633 12.975889293533731 144.68782678394444 8 -2 15
9475 0 2 0 2.6560431583213515 13.488530186444487 144.60332748639667 8 -2 15
10351 0 2 0 4.425655625398927 13.183039317350959 145.64065164036887 8 -2 15
9863 0 2 0 4.57104767611595 10.1546696806527 145.60209770982152 8 -2 15
10266 0 2 0 1.0055560668581982 12.882087183940543 146.20682898686687 8 -2 15
8523 0 1 0 0.7587662689466712 10.562906605397911 141.66728274578244 9 -2 15
11058 0 3 0 1.7407860399806308 13.834688829760031 144.6197875807027 8 -2 15
8518 0 1 0 0.06360906954347131 9.294716689701772 141.748285801021 9 -2 15
9864 0 2 0 5.691823999383944 9.646872755617382 144.6139018302428 8 -2 15
11252 0 3 0 4.8678445392872405 10.13202928134573 144.66805255208538 8 -2 15
10618 0 2 0 8.660410201611903 12.184335933818373 143.5354552935603 8 -2 15
11629 0 3 0 9.158942688659451 12.236627139301746 144.34158005158932 8 -2 15
10617 0 2 0 8.504296353503335 12.485970845944797 145.02240506179152 8 -2 15
9847 0 2 0 2.8477242276329946 18.407847370965058 145.43205757055844 8 -2 15
10190 0 2 0 0.38082990595163935 15.79312853740501 144.54309287951125 8 -2 15
11584 0 3 0 4.352332905914611 17.00558510384969 145.02985091680097 8 -2 15
10527 0 2 0 4.009376787562242 16.263473604392466 144.40453606801253 8 -2 15
11415 0 3 0 0.3173490549572698 16.679890067029977 144.91251840289297 8 -2 15
10189 0 2 0 0.17726488264375226 17.313851189061396 144.19041426341417 8 -2 15
8827 0 2 0 7.018391308397007 14.015366438697582 145.0221195191776 8 -2 15
10528 0 2 0 5.024173423576221 17.51422727379901 144.5187608132991 8 -2 15
10734 0 3 0 6.9965968145597195 14.430300424161418 144.15800136026465 8 -2 15
8828 0 2 0 6.16334500365967 14.195152921473333 143.8498791671266 8 -2 15
10131 0 2 0 8.226322964534925 16.14288148474845 143.51954391333908 8 -2 15
11386 0 3 0 9.060017732014058 16.475417701890056 143.90111243519385 8 -2 15
10132 0 2 0 8.76251303924871 16.431890879292563 144.86929985487495 8 -2 15
11414 0 3 0 4.168469761780719 10.41107477068501 147.30604136548428 8 -2 15
10265 0 2 0 0.8628878052816589 13.693404150488567 147.44939515897923 8 -2 15
10188 0 2 0 3.7214333994310964 10.830810073538954 148.05293063964854 8 -2 15
10269 0 2 0 1.7230427315550176 12.254948615779385 148.2598481290829 8 -2 15
10270 0 2 0 1.863726917643989 11.897396029956582 149.78913806684932 8 -2 15
11455 0 3 0 2.379543410283217 12.065644645255215 148.95134704594835 8 -2 15
10114 0 2 0 4.806780791323355 13.714409773060511 148.75194827425082 8 -2 15
10113 0 2 0 3.9849127027907394 12.7189573841646 149.49648165919697 8 -2 15
11377 0 3 0 4.7934745141527095 13.277316817156116 149.61345711745997 8 -2 15
11453 0 3 0 0.5262185251455102 12.858075925298298 147.0971972164465 8 -2 15
9576 0 2 0 7.50748639732972 9.526651567934481 147.99649577644016 9 -2 15
10187 0 2 0 5.045801266833628 10.137805232516095 147.61763684957074 8 -2 15
9575 0 2 0 6.921941697035656 9.509654709635134 146.46609903203847 9 -2 15
11108 0 3 0 6.959998545791377 10.01251733898361 147.3610202233796 9 -2 15
9552 0 2 0 7.2957124722284625 11.94581618861576 146.87538578809693 8 -2 15
11096 0 3 0 7.422828030263853 12.903431253630222 146.6854508708539 8 -2 15
9551 0 2 0 7.80809329082165 13.38983102138634 147.41837982817 8 -2 15
10632 0 2 0 6.332838814974012 12.876502433944472 150.05577704984833 8 -2 15
10631 0 2 0 7.74459018896675 13.38340119957388 149.7414753319191 8 -2 15
11636 0 3 0 7.324741992186343 12.594849422697202 150.19866088977315 8 -2 15
9532 0 2 0 8.558412852431381 11.084217279722608 149.82254011539706 8 -2 15
11086 0 3 0 8.971060372497135 10.25997895169724 149.59563652702823 8 -2 15
11559 0 3 0 4.35437591651885 14.714506965658373 147.0404526689786 8 -2 15
10478 0 2 0 3.4222729697862317 14.916150285850206 147.26845862000033 8 -2 15
9931 0 2 0 1.5247209645150002 16.31569046680104 146.73158948010902 8 -2 15
10477 0 2 0 4.5557473284961985 15.547254130441885 146.6134709660855 8 -2 15
11286 0 3 0 1.966796142424166 15.793088008296229 147.45463192626315 8 -2 15
9886 0 2 0 2.1468793378464697 18.495708273835554 149.98333332927282 8 -2 15
11263 0 3 0 2.1666629614156943 17.487764059006732 149.94370188462017 8 -2 15
9932 0 2 0 2.0043478037889066 16.458713259447425 148.13526164109604 8 -2 15
9885 0 2 0 3.1335864556753523 17.312196025475465 149.7376307217718 8 -2 15
10534 0 2 0 4.17355886493069 18.48145072032895 148.57185328465138 8 -2 15
11572 0 3 0 9.26707794253965 14.464391079512094 148.61606683591407 8 -2 15
8711 0 2 0 8.219077246010185 16.910265562358163 150.4493606430207 8 -2 15
10676 0 3 0 8.052254905762446 16.011248421486545 150.63709334746684 8 -2 15
8712 0 2 0 8.313871438509452 15.507266465535006 149.86139668120302 8 -2 15
11432 0 3 0 8.908244636056239 16.665571019872722 146.87592766436677 8 -2 15
10224 0 2 0 8.484685876022626 17.475599228031857 147.17053565267668 8 -2 15
10503 0 2 0 9.41656995227386 15.067645197062484 147.85253640803015 8 -2 15
11587 0 3 0 4.841880625377732 17.888756468994078 148.971647591541 8 -2 15
11093 0 3 0 3.7178923475693004 22.001114508106856 3.2622500713773994 8 -2 16
10936 0 3 0 3.0942335252755817 21.8391467408746 0.43437826639366917 8 -2 16
9546 0 2 0 3.158242325028755 22.667094051480394 3.665080629965634 8 -2 16
9232 0 2 0 3.3383375726703477 21.967197641094238 1.3696189033260804 8 -2 16
9545 0 2 0 3.4104370629964302 21.158558671638488 3.7196573344134216 8 -2 16
10866 0 3 0 7.202805752920137 19.457194329630937 4.578196734913431 8 -2 16
9144 0 2 0 8.392391761077256 18.983661432870797 2.870562927305227 8 -2 16
10320 0 2 0 8.350419473073654 22.85369120542892 4.4423654895645255 8 -2 16
10892 0 3 0 8.97704760407747 18.845786048069897 2.1004215117216107 8 -2 16
9338 0 2 0 9.067442316943168 19.096706109458104 0.205992734303087 8 -2 16
8874 0 2 0 6.285588933873452 19.970611207158594 2.716928672237385 8 -2 16
8873 0 2 0 5.201294010595822 19.279216295699772 1.7239971071374938 8 -2 16
10757 0 3 0 5.768159164170719 20.07333394554575 1.8909201838914267 8 -2 16
9464 0 2 0 4.960059743818041 22.934835275701015 2.3725453258294706 8 -2 16
9086 0 2 0 6.286590259496192 20.37400536090125 0.18168717251452718 8 -2 16
11605 0 3 0 9.4228616609698 22.920237372461443 0.1052511301627296 8 -2 16
9563 0 2 0 2.0536318092390506 24.956140085387855 3.490503255866676 8 -2 16
11102 0 3 0 2.1044868025116625 24.194714301262934 4.139477421540439 8 -2 16
10993 0 3 0 2.269289040839641 25.985829883257853 1.9022979643144688 8 -2 16
9346 0 2 0 3.231499509511369 26.217489888188062 1.9121621153683974 8 -2 16
8902 0 2 0 1.0791559757527094 27.31185927210685 2.029714355943227 8 -2 16
9345 0 2 0 2.0625704292784763 25.39809994192363 1.1938335839016934 8 -2 16
8742 0 2 0 5.958818740636065 24.964514619468375 4.514620416518256 8 -2 16
8741 0 2 0 6.984229415309564 26.127819756685348 4.551662259512741 8 -2 16
11480 0 3 0 8.01342270801371 23.63642975745936 3.904565356393467 8 -2 16
10319 0 2 0 8.727277742603416 23.954186926376174 3.239861484172487 8 -2 16
10970 0 3 0 8.275726609886377 26.979977559240417 4.1248930085379385 8 -2 16
9299 0 2 0 8.42922567622715 26.779459102661903 3.1393038541022267 8 -2 16
9463 0 2 0 6.373338413866851 23.353729010980434 2.8511416963155023 8 -2 16
11052 0 3 0 5.680688232541419 23.538190072106318 2.1173239032449445 8 -2 16
9254 0 2 0 9.566220730348016 26.028023905019836 1.0069169428366485 8 -2 16
10436 0 2 0 6.628026242600893 24.401968110492515 0.18839837799757908 8 -2 16
10570 0 2 0 9.236909805445409 23.80551200131009 0.4920441760698337 8 -2 16
10947 0 3 0 9.514838472954976 25.54404806148154 1.865826814996814 8 -2 16
9023 0 2 0 5.261437831413217 26.373230717345095 2.981714220416465 8 -2 16
9024 0 2 0 5.152666117691158 25.391283816486613 1.8180638487755758 8 -2 16
10832 0 3 0 4.844534607518676 26.249997762573752 2.0610796551375907 8 -2 16
9629 0 2 0 4.2401027155271755 27.923692953230365 1.1386824548422672 8 -2 16
8901 0 2 0 0.39057177109654 28.595506950086506 1.3241773113769406 8 -2 16
10767 0 3 0 3.118641772981688 30.178372588678936 4.579287972641039 8 -2 16
10906 0 3 0 3.308013490221714 31.207346001824362 1.5275560988294838 8 -2 16
8893 0 2 0 2.1277113267655374 30.12792257094135 4.411080771215377 8 -2 16
9171 0 2 0 2.9332208657126846 31.371191620375736 2.4104916300235275 8 -2 16
10598 0 2 0 1.6313772246118938 30.959782532452618 0.8099551099230751 8 -2 16
10597 0 2 0 0.2666498318835693 31.4580009332194 1.2406616258297327 8 -2 16
9172 0 2 0 3.477778910316963 30.171088268861244 1.4459212543287083 8 -2 16
9567 0 2 0 0.2748189131393668 29.244660388443574 3.19446806100153 8 -2 16
11135 0 3 0 3.901891908289806 28.776567754001523 0.7688900345520856 8 -2 16
11104 0 3 0 0.3628948151492339 29.96254598788528 3.863203310618668 8 -2 16
11619 0 3 0 0.7307856289170996 31.160500604746726 0.4958827070113851 8 -2 16
10771 0 3 0 0.23149652378101987 27.897454733829598 1.9841384671518685 8 -2 16
9815 0 2 0 6.735825764659078 32.067912366010304 2.0361507188982717 8 -2 16
11228 0 3 0 6.324160279660396 31.443572000219845 2.690676370938419 8 -2 16
9300 0 2 0 8.05810094609807 27.981568979147614 4.203268881023837 8 -2 16
10312 0 2 0 9.177467445765897 29.21962140412634 2.1282282718019023 8 -2 16
9155 0 2 0 6.827144886021256 29.990955840432473 4.398142220127913 8 -2 16
10311 0 2 0 7.669412739783176 29.534743141607574 1.9306560006447588 8 -2 16
11476 0 3 0 8.319880886464635 28.84760471642927 1.7729275994267117 8 -2 16
9816 0 2 0 5.3760781478449156 31.60816372668293 2.5121713650997357 8 -2 16
10394 0 2 0 3.5900851805233844 33.83970371279192 2.3715714204295817 8 -2 16
8821 0 2 0 4.0774183873449585 33.44286615153245 4.426662967344089 8 -2 16
11223 0 3 0 0.6450201085167719 35.516920835748785 1.165337606074354 8 -2 16
10568 0 2 0 1.728092772926338 34.11617536536851 3.809933368183498 8 -2 16
9770 0 2 0 4.4214399061203835 36.98151452678172 2.43162558674728 8 -2 16
10393 0 2 0 4.773165555650209 34.7858270775584 2.7561669366431176 8 -2 16
11517 0 3 0 4.45351047606008 33.87778097755081 2.8787304005780623 8 -2 16
11604 0 3 0 1.4717345656589702 33.74712671713097 2.9362238366616142 8 -2 16
10567 0 2 0 1.1929951859385348 34.46735409763747 2.3014423475317205 8 -2 16
9806 0 2 0 1.0523731064131452 35.47808675990778 0.2747504080227285 8 -2 16
11205 0 3 0 5.347213867959524 36.556931661039336 2.4890990681872633 8 -2 16
10146 0 2 0 5.984475512025075 36.76653521032305 4.2249951325644215 8 -2 16
10396 0 2 0 8.561903677707267 35.85372321690112 2.956391016889193 8 -2 16
9659 0 2 0 6.562750806894478 33.11445320439281 4.3325998838350275 8 -2 16
10626 0 2 0 8.97387929851265 32.428670449341546 4.4730205887034336 8 -2 16
10395 0 2 0 9.106499129673345 35.889572531071124 4.454738728779687 8 -2 16
11518 0 3 0 9.007296250601605 36.406936545666184 3.6312342814069356 8 -2 16
9769 0 2 0 5.587794270671347 36.36684491720054 1.5357630458717166 8 -2 16
10627 0 2 0 8.790092515685483 34.112050852170434 1.3875693792105193 8 -2 16
10628 0 2 0 7.413297347006554 34.88313123765901 1.0597739051559922 8 -2 16
11634 0 3 0 8.031494009861293 34.53687261608217 1.7781891746227971 8 -2 16
10602 0 2 0 9.037432660247624 22.004515275965343 6.603905319954594 8 -2 16
11621 0 3 0 8.794711853970087 21.747420505427012 5.700648837034398 8 -2 16
9092 0 2 0 6.981547868847264 20.221014933661696 5.099540175293391 8 -2 16
10763 0 3 0 9.480953170349249 23.10056685264271 8.01717245122321 8 -2 16
9091 0 2 0 6.769558560868938 18.54724808900774 4.809106879360234 8 -2 16
9564 0 2 0 2.212677297371673 24.68798666011909 5.023682002343754 8 -2 16
11056 0 3 0 3.189257924472464 25.536540505349425 7.054990472041107 8 -2 16
9472 0 2 0 2.72837442899702 26.36648059385175 7.109762695632485 8 -2 16
9471 0 2 0 4.072313342952704 25.814147748838526 6.654003294425765 8 -2 16
10691 0 3 0 5.999796879791006 25.888297921350247 4.787830543388923 8 -2 16
9434 0 2 0 6.813491030380495 25.138760398112215 6.876836135140604 8 -2 16
9414 0 2 0 9.081733351305541 26.190496362545137 5.478553743797921 8 -2 16
11037 0 3 0 7.358684070496241 25.34990520528696 7.606559567509588 8 -2 16
9433 0 2 0 7.119986927459382 26.271945479191924 7.671252377578475 8 -2 16
8885 0 2 0 8.707652910786557 23.81823834205643 8.123841318808802 8 -2 16
10948 0 3 0 2.9475384044453636 28.601617054901247 7.087251909658167 8 -2 16
9256 0 2 0 3.174253981123687 29.289204729300973 6.388424067162294 8 -2 16
8894 0 2 0 3.28570076301333 31.09734033392024 4.878345513935245 8 -2 16
9779 0 2 0 2.2482469108540726 31.456557901018158 8.487103519282694 8 -2 16
9255 0 2 0 3.022014120994071 29.152762906863305 7.8953753843636285 8 -2 16
11210 0 3 0 2.904388018018241 30.873809113641318 8.99323917253054 8 -2 16
10083 0 2 0 0.5726939506824654 31.92613356285713 7.4433966247280035 8 -2 16
9792 0 2 0 4.980137837352733 28.362727760989657 7.260089415962733 8 -2 16
9791 0 2 0 6.331718003787433 28.776375778359196 6.594037080298705 8 -2 16
11216 0 3 0 5.881353376412999 28.73227356599329 7.4661910929228394 8 -2 16
10518 0 2 0 9.078016939319367 30.7046797068231 7.694694739063418 8 -2 16
8657 0 2 0 6.085033222632571 30.14542160267898 8.476553943898857 8 -2 16
10649 0 3 0 6.14574235876469 30.931552551925847 9.105371614186138 8 -2 16
9156 0 2 0 7.958400026385492 29.88239677284629 5.445972878525978 8 -2 16
10898 0 3 0 7.358281543446289 29.34120377235467 4.9036051098104645 8 -2 16
11579 0 3 0 9.267831169099738 30.2078611339484 6.868898120566357 8 -2 16
10731 0 3 0 3.917109485822692 33.15710767997248 5.386880570989578 8 -2 16
8822 0 2 0 4.74898922142746 33.266984465650495 5.8340290771893475 8 -2 16
11362 0 3 0 1.0384506013350001 32.554918621667206 8.00482126857684 8 -2 16
8660 0 2 0 2.3255552780268376 34.0595448405359 5.837058307224142 8 -2 16
10650 0 3 0 1.5582276194956333 34.65486538952306 5.938768422181588 8 -2 16
8659 0 2 0 1.9000483467923424 35.417410972039875 6.3681090471303765 8 -2 16
10084 0 2 0 1.3096211096491308 33.3440565414476 7.44989312067858 8 -2 16
9446 0 2 0 3.197692660319668 36.87728929852029 7.70623821759759 8 -2 16
11043 0 3 0 2.9285378033588674 36.96493618130125 6.73754483549481 8 -2 16
10212 0 2 0 6.042182549203697 35.154324000849996 7.933915879567157 8 -2 16
11393 0 3 0 5.906870415951573 36.63711763039663 5.2212751021575095 8 -2 16
11150 0 3 0 7.2015343872697795 33.040206522428484 5.084430956499554 8 -2 16
11213 0 3 0 8.842766818920827 35.513341280267056 6.315856733906763 8 -2 16
9660 0 2 0 7.2557466733494635 33.961302790875706 5.465319830399729 8 -2 16
10211 0 2 0 6.703748038178895 33.74743553649806 8.15493365634117 8 -2 16
11426 0 3 0 6.608572674028948 34.44446735520863 7.472143710127943 8 -2 16
9786 0 2 0 9.505731159434946 35.0866624794481 6.806793672361868 8 -2 16
9785 0 2 0 8.084586876196202 35.31655751826944 6.877313018188983 8 -2 16
11167 0 3 0 7.767724775088441 36.63769777610297 9.364238944265887 8 -2 16
9694 0 2 0 7.914645980577766 36.69224616650854 8.390163757137566 8 -2 16
10973 0 3 0 4.988553582952891 36.3722626846935 8.58709268632357 8 -2 16
9780 0 2 0 2.5900090874107886 30.94724416086976 9.904484567523095 8 -2 16
8658 0 2 0 5.2839216697750615 30.890914654412402 9.641748049731614 8 -2 16
9309 0 2 0 7.7343856603013235 31.008731630582815 9.582995756386547 8 -2 16
9310 0 2 0 9.032380354536377 30.608903416069392 10.389082365037822 8 -2 16
10975 0 3 0 8.68007224429361 31.288896447511657 9.78382294933912 8 -2 16
11008 0 3 0 3.3831403129601147 33.44783885683888 10.638860567069084 8 -2 16
9376 0 2 0 2.455771015391201 33.684318965672986 10.776182105012133 8 -2 16
9375 0 2 0 3.5223186261117956 33.18552781713796 9.633544126669113 8 -2 16
9761 0 2 0 4.628832705847511 34.50956333741467 11.250931361401506 8 -2 16
11095 0 3 0 9.063044540647214 34.15156772687631 10.09519618269424 8 -2 16
11201 0 3 0 5.087040434561321 35.42887034149959 11.297434726137313 8 -2 16
9549 0 2 0 8.381274539858364 34.80900219838165 10.040282470468439 8 -2 16
9550 0 2 0 8.66765316392109 33.25636305358306 10.122385346413227 8 -2 16
9762 0 2 0 6.043048650541496 35.1517174333182 11.422931739715745 8 -2 16
9305 0 2 0 5.149308775669934 36.24549025592675 9.575621466730984 8 -2 16
138 0 1 0 4.349203343960734 21.56584079844448 141.29486097904692 8 -2 15
134 0 1 0 4.361301588435543 19.081876400735297 141.0858489296706 8 -2 15
133 0 1 0 2.9451028475203644 19.097110373500573 141.2126463276547 8 -2 15
137 0 1 0 2.951554007448267 21.542932728492794 141.2738100352919 8 -2 15
8540 0 1 0 2.1927580965538924 20.36216171273168 141.35269203674196 9 -2 15
8544 0 1 0 2.27647856051328 22.79767765842771 141.3397285973714 9 -2 15
8543 0 1 0 0.8510040406477093 22.863528964175725 141.2735479792791 9 -2 15
8539 0 1 0 0.7923355323165412 20.350873833554083 141.4064888278212 9 -2 15
8538 0 1 0 0.10170135572620569 21.603481424956936 141.36410172504281 9 -2 15
8534 0 1 0 0.027641206391656514 19.16724808597969 141.36109170090054 9 -2 15
139 0 1 0 5.107474081250336 20.329248836203803 141.20427762814398 8 -2 15
140 0 1 0 6.523153500587552 20.352282776458658 141.13596204887148 8 -2 15
377 0 1 0 7.18129795272456 21.55676564901829 141.14922815556463 8 -2 15
373 0 1 0 7.241452525880554 19.109113065521466 140.96894077761775 8 -2 15
374 0 1 0 8.691392145130035 19.102932419979737 140.76062732538145 8 -2 15
379 0 1 0 9.348463997001879 20.33496344004358 140.7716290493157 8 -2 15
378 0 1 0 8.585509981806908 21.591312858166635 140.84715189678272 8 -2 15
143 0 1 0 5.070790103887959 22.8031171555389 141.28870295962747 8 -2 15
144 0 1 0 6.491871092891554 22.83595121823534 141.1722117581687 8 -2 15
383 0 1 0 9.30707140304811 22.826350376115975 140.8324883169499 8 -2 15
146 0 1 0 4.381666879397515 26.553967083735444 141.25619302812387 8 -2 15
142 0 1 0 4.362504163467025 24.059171462147162 141.21115170103127 8 -2 15
145 0 1 0 2.9123369536427206 26.54047578324298 141.34658698527863 8 -2 15
141 0 1 0 2.97401482957925 24.057396804025004 141.2754444246392 8 -2 15
8548 0 1 0 2.2293363905136356 25.244894207223687 141.28191271924575 9 -2 15
8552 0 1 0 2.1904275027661533 27.750479469965892 141.3413051016527 9 -2 15
8542 0 1 0 0.11975278804795031 24.10383163841556 141.28367591828186 9 -2 15
8547 0 1 0 0.8513683844041782 25.29904828995389 141.393263515182 9 -2 15
8546 0 1 0 0.0974716765817197 26.575738749659223 141.4622644812268 9 -2 15
147 0 1 0 5.060089541534647 25.28382778538108 141.1710203524821 8 -2 15
148 0 1 0 6.489078790064569 25.346050250140706 141.03200098361216 8 -2 15
381 0 1 0 7.21735471381454 24.107339171604572 141.07447163576632 8 -2 15
385 0 1 0 7.214699272613086 26.532755821007296 140.8476312812729 8 -2 15
382 0 1 0 8.65230918065469 24.06066933434612 140.89717349496308 8 -2 15
386 0 1 0 8.690091178780387 26.555566402822524 140.79495006093427 8 -2 15
387 0 1 0 9.383928767908994 25.33867360927144 140.88416387988255 8 -2 15
150 0 1 0 4.36591862027469 29.017678148512587 141.11803310484015 8 -2 15
154 0 1 0 4.393186028740475 31.489743823026505 141.09954175249823 8 -2 15
149 0 1 0 2.939683743123696 29.026021914114363 141.31201232979927 8 -2 15
153 0 1 0 2.9753007975464594 31.47639450076543 141.37273136715294 8 -2 15
8556 0 1 0 2.229854321938524 30.25007255437848 141.45293416233864 9 -2 15
8550 0 1 0 0.08066884667175982 29.085695507020233 141.61880329410388 9 -2 15
8551 0 1 0 0.790626855015241 27.778933147784382 141.48497670159549 9 -2 15
8555 0 1 0 0.811986216431771 30.235961540450646 141.5475551279968 9 -2 15
8554 0 1 0 0.05396254821375424 31.464717715113526 141.58262170218487 9 -2 15
155 0 1 0 5.076727531881914 30.20194934569485 140.96851540083864 8 -2 15
151 0 1 0 5.069295803887528 27.804447900700225 141.04058918135215 8 -2 15
152 0 1 0 6.513055494771122 27.775133954258475 140.78756531910759 8 -2 15
156 0 1 0 6.4929634580706415 30.26899901923061 140.7440323866615 8 -2 15
389 0 1 0 7.240796005829098 29.003345239364087 140.7019688221287 8 -2 15
391 0 1 0 9.392665254904173 27.776172279919574 140.66268100966352 8 -2 15
390 0 1 0 8.66768857315236 28.99035716118809 140.64472870944135 8 -2 15
395 0 1 0 9.355050950495578 30.22987198048379 140.69930801600222 8 -2 15
393 0 1 0 7.227225859626894 31.523885093070806 140.71634308312468 8 -2 15
394 0 1 0 8.68688874503684 31.488067505222723 140.67110673890673 8 -2 15
162 0 1 0 4.390039957267128 36.37775119429312 141.20919417027486 8 -2 15
158 0 1 0 4.297921126425616 33.91663590871488 141.122061192581 8 -2 15
157 0 1 0 2.9280604173217233 33.93394800505417 141.32076716374596 8 -2 15
161 0 1 0 2.953569132022995 36.38329910535227 141.32697336354303 8 -2 15
8564 0 1 0 2.2455023182157436 35.18383270556304 141.44373397653703 9 -2 15
8560 0 1 0 2.2402338718659975 32.70139429906116 141.42719874999483 9 -2 15
8559 0 1 0 0.8266453998454624 32.70815721571283 141.58151977223855 9 -2 15
8563 0 1 0 0.7978175718402831 35.20499159303364 141.5884875239176 9 -2 15
159 0 1 0 5.035667064536209 32.722264170542275 140.98165476208032 8 -2 15
163 0 1 0 5.054491754047837 35.13990240512087 141.07806294125857 8 -2 15
160 0 1 0 6.482297082718484 32.70933416223345 140.85330908399092 8 -2 15
164 0 1 0 6.521000184325998 35.1492827798355 140.99734340530495 8 -2 15
397 0 1 0 7.228575010798292 33.95601977088808 140.81220046501224 8 -2 15
398 0 1 0 8.675228353173223 33.90198067075925 140.79303821149767 8 -2 15
399 0 1 0 9.354084448425345 32.71240645827476 140.74840401935418 8 -2 15
403 0 1 0 9.345740598017644 35.16633883008483 140.80314539212338 8 -2 15
401 0 1 0 7.205232231924813 36.389217198965156 141.01625489086513 8 -2 15
402 0 1 0 8.651105799055648 36.42285353838596 140.9792198316018 8 -2 15
9452 0 2 0 3.6256707488838673 20.631763133324913 144.99211406964855 8 -2 15
9451 0 2 0 4.0818418992322725 21.728274617597364 145.95231272979245 8 -2 15
11046 0 3 0 4.37623438836558 21.24954548047329 145.1141183054929 8 -2 15
11308 0 3 0 1.0674356606705666 22.368136031735446 144.77652197853146 8 -2 15
9976 0 2 0 0.5095646527665593 23.11688095942281 144.458558333403 8 -2 15
9975 0 2 0 0.9164825788358336 22.41424437526257 145.7382575050101 8 -2 15
10247 0 2 0 0.0013826998503509585 20.798286317596094 144.39054947646935 8 -1 15
9848 0 2 0 1.6855534706746846 19.459395253233016 145.42284546017066 8 -2 15
11244 0 3 0 2.510984552654377 19.22915748915195 145.84853415317153 8 -2 15
10348 0 2 0 5.548491682269336 20.039849880818053 144.8681628289702 8 -2 15
8882 0 2 0 7.472325349717767 20.609985009396308 144.4092988894947 8 -2 15
10761 0 3 0 8.074413695922653 21.371458961907585 144.24637211448814 8 -2 15
8881 0 2 0 8.751510798023372 21.020691156566286 143.68709428283765 8 -2 15
9809 0 2 0 8.345411488826128 21.515525484652702 146.05165801546605 8 -2 15