LAMMPS data file via write_data, version 4 Feb 2025, timestep = 50000, units = metal

13140 atoms
3 atom types

0 154.00799999999998 xlo xhi
0 148.2 ylo yhi
0 151.07609208607428 zlo zhi

Masses

1 12.01099999691024
2 1.007999999740698
3 15.99899999588435

Atoms # full

8003 0 1 0 4.1499415903610615 4.340696319160794 39.28598468784887 1 0 0
7941 0 1 0 4.161034192419321 1.9557099830197173 39.2901537053993 1 0 0
7982 0 1 0 0.5896847944239417 3.1266323446776583 39.20567745097379 1 0 0
7991 0 1 0 2.0131438054419672 3.1579636657422028 39.28697176478495 1 0 0
7940 0 1 0 2.7377055202919096 1.9609208800752835 39.373053209054056 1 0 0
7939 0 1 0 2.052038073812568 0.7212229360882587 39.50159036941051 1 0 0
7992 0 1 0 2.745539811658533 4.359872700184577 39.315772653485304 1 0 0
7930 0 1 0 0.5924261766570813 0.6899028167413739 39.512879662146275 1 0 0
8023 0 1 0 8.468845079059381 4.396483243016435 39.27416226493306 1 0 0
8012 0 1 0 7.054876608117493 4.401174630914238 39.150168527030466 1 0 0
7961 0 1 0 8.466909560698728 1.9678854983000502 39.38930526774702 1 0 0
8011 0 1 0 6.313132616542045 3.179625076102448 39.216700615917055 1 0 0
7959 0 1 0 6.290870204525137 0.685767804706461 39.39948873915131 1 0 0
7960 0 1 0 7.062574955027643 1.9117770137000807 39.40874705434094 1 0 0
8002 0 1 0 4.873416904804887 3.152148869366963 39.27573093571263 1 0 0
7950 0 1 0 4.867182840781668 0.7242953500176504 39.42265608095318 1 0 0
8032 0 1 0 11.313796341359025 4.416221705042811 39.560652635583075 1 0 0
8082 0 1 0 9.248674019631551 15.552407793671616 39.06897957540148 1 0 0
8031 0 1 0 10.58989948545897 3.1904732446398807 39.53671845355294 1 0 0
7980 0 1 0 11.320112549660221 1.9416347350630752 39.607728177567154 1 0 0
7983 0 1 0 12.75827567703367 4.422777386668107 39.586057941001485 1 0 0
8022 0 1 0 9.1817871595979 3.183944750037743 39.356757492656875 1 0 0
7979 0 1 0 10.596786058692135 0.7163664171963978 39.64499893814453 1 0 0
7970 0 1 0 9.16740430021366 0.7195288578751734 39.52227488563163 1 0 0
7994 0 1 0 2.725215888330197 6.835874892999825 39.110409657671106 1 0 0
7995 0 1 0 2.054695126665358 8.093341977333937 38.984907040545124 1 0 0
8005 0 1 0 4.193002467457658 6.8825727901842795 39.05532881636258 1 0 0
7984 0 1 0 0.5685348645196628 5.55732278460535 39.07339946452665 1 0 0
7986 0 1 0 0.6182479964979224 8.101562856949682 38.976879000087926 1 0 0
7993 0 1 0 1.9983461365520212 5.585491497577358 39.20103049460248 1 0 0
8006 0 1 0 4.904268661064239 8.087380456868255 39.03938335173749 1 0 0
8015 0 1 0 6.335336251305084 8.118369124310197 39.13288551959079 1 0 0
8025 0 1 0 8.48070454073993 6.882533275442255 39.46339455913445 1 0 0
8014 0 1 0 7.02028145601118 6.8554327742152426 39.33668348955547 1 0 0
8004 0 1 0 4.899246242287342 5.620804504438606 39.20489570746343 1 0 0
8013 0 1 0 6.262708530344595 5.654484612229098 39.19247838087235 1 0 0
8024 0 1 0 9.182783442847812 5.6105842213505115 39.444216288967134 1 0 0
8026 0 1 0 9.183623869036973 8.100833907196527 39.441169556275376 1 0 0
8035 0 1 0 10.60276332302373 8.125713697213948 39.50069118470158 1 0 0
8034 0 1 0 11.311133819466056 6.879563446144953 39.623203650562495 1 0 0
7985 0 1 0 12.784006391083087 6.923677007750104 39.658786518627636 1 0 0
8033 0 1 0 10.61928837622924 5.606671868156119 39.53952934506618 1 0 0
8009 0 1 0 4.187913398140197 11.805869416547921 39.029880950551835 1 0 0
8007 0 1 0 4.198629635550684 9.307888295902687 39.06955017479601 1 0 0
7998 0 1 0 2.8034740012616286 11.801529544841125 38.896464968744155 1 0 0
7990 0 1 0 0.6165184508033509 13.07291095090443 38.741580331558374 1 0 0
7999 0 1 0 2.0395133335014712 13.048647805746063 38.83726521480222 1 0 0
7988 0 1 0 0.6435866689890034 10.607556297399016 38.84215241082314 1 0 0
7997 0 1 0 2.102331918125184 10.576843019643709 38.88898098923393 1 0 0
7996 0 1 0 2.790577817110329 9.338865368904559 38.974261863596254 1 0 0
8016 0 1 0 7.046079343597006 9.351536504058558 39.32725916874866 1 0 0
8029 0 1 0 8.458224775780456 11.83830849715751 39.31761543977159 1 0 0
8019 0 1 0 6.36177407838165 13.137940802366103 39.2186921911147 1 0 0
8027 0 1 0 8.454666561161504 9.333685845135097 39.377087172233495 1 0 0
8008 0 1 0 4.905955605848109 10.581417931694768 39.10011184581076 1 0 0
8018 0 1 0 7.011205481979556 11.844299911940478 39.34329064874729 1 0 0
8017 0 1 0 6.31042293598641 10.564858225774406 39.30607229891704 1 0 0
8010 0 1 0 4.936474917100958 13.10021162655637 39.036914028379094 1 0 0
7987 0 1 0 12.794173188290001 9.367406910852711 39.610067570172326 1 0 0
7989 0 1 0 12.73955163975452 11.823443828264061 39.488160270559604 1 0 0
8030 0 1 0 9.167537215424655 13.066842955019897 39.19480476179875 1 0 0
8037 0 1 0 10.618670806296361 10.577938627307933 39.35106169776255 1 0 0
8038 0 1 0 11.2862055585066 11.810941586272483 39.3544377302598 1 0 0
8036 0 1 0 11.343129752613518 9.333827962485431 39.455637869059835 1 0 0
8039 0 1 0 10.612752593591157 13.056355321933301 39.2615325912321 1 0 0
8028 0 1 0 9.171176763474739 10.548651103724033 39.33637686186971 1 0 0
8051 0 1 0 2.0460662707777657 15.504317068110769 38.65789937191456 1 0 0
8001 0 1 0 4.183771518179836 14.297677082414035 38.917805861516705 1 0 0
8000 0 1 0 2.7502985538575486 14.266172237076397 38.78130508954563 1 0 0
8063 0 1 0 4.2946915326181285 16.7722934157655 38.52345581056853 1 0 0
8042 0 1 0 0.6075050399314151 15.533737281579972 38.66807013067777 1 0 0
8052 0 1 0 2.8112875524886975 16.7517564623905 38.49521158567491 1 0 0
8053 0 1 0 2.084327011612088 18.000862978238548 38.34727261211334 1 0 0
8044 0 1 0 0.6566702732202899 18.01644408476843 38.33824293073976 1 0 0
8072 0 1 0 7.121260467831654 16.766920403600803 38.749119632151896 1 0 0
8021 0 1 0 8.520678984279607 14.310994689705542 39.1605577377089 1 0 0
8083 0 1 0 8.560378445028688 16.815077287505655 38.916063440797664 1 0 0
8062 0 1 0 4.972440878651571 15.505948345040183 38.7781430716366 1 0 0
8020 0 1 0 7.1050070557944425 14.314612332147805 39.08384367748652 1 0 0
8073 0 1 0 6.349446627244931 18.006452853405822 38.67103743663335 1 0 0
8071 0 1 0 6.4186610265088815 15.517999791836642 38.902315408517104 1 0 0
8064 0 1 0 4.931675966102611 18.020289426421723 38.559302338171065 1 0 0
8093 0 1 0 10.70684776442391 18.013489791089693 39.13084961568359 1 0 0
8084 0 1 0 9.264933337105651 18.01127534772423 38.93243425590634 1 0 0
8043 0 1 0 12.833776557262423 16.779247374841592 39.14511053307419 1 0 0
8092 0 1 0 11.40699861624768 16.78176765828119 39.222161134211426 1 0 0
8040 0 1 0 11.327399900327169 14.299595876718977 39.28351049283957 1 0 0
7981 0 1 0 12.744428375081048 14.291062733292799 39.320417534783765 1 0 0
8091 0 1 0 10.646364499741747 15.550069734973654 39.17307337509687 1 0 0
7921 0 1 0 12.70999361325919 1.9266612849408642 39.70127449726906 1 0 0
8118 0 1 0 2.8516743914114135 36.51190481042284 37.289132271605446 1 0 0
8138 0 1 0 7.129695172867841 36.54954754117128 37.68751597754425 1 0 0
7385 0 1 0 0.02072288163340769 31.55117892296162 37.74171638611958 1 0 0
8129 0 1 0 4.249531351852943 36.48702400224318 37.356733265046614 1 0 0
8117 0 1 0 2.1620336012726558 35.27319640700538 37.37938507041445 1 0 0
8108 0 1 0 0.7543467462126624 35.23821249363824 37.229577147772744 1 0 0
8128 0 1 0 4.971443605436774 35.304540195883995 37.63875193554019 1 0 0
8127 0 1 0 4.2832403316850165 34.06373872164633 37.67383958205963 1 0 0
8116 0 1 0 2.8334003334006472 34.073930194521694 37.50853104388405 1 0 0
8137 0 1 0 6.412579112147745 35.303143514205125 37.68619072757245 1 0 0
8115 0 1 0 2.16357102695372 32.762880742569266 37.47284799778987 1 0 0
8106 0 1 0 0.726845423536084 32.76386264949969 37.51667418099689 1 0 0
7389 0 1 0 0.05797531004037852 36.512111752972125 37.21540315391656 1 0 0
8114 0 1 0 2.9102029616580567 31.575455625323173 37.671341468289484 1 0 0
7387 0 1 0 0.05834555793788354 34.02577755541802 37.3715972025382 1 0 0
8113 0 1 0 2.2075379631043566 30.326178490171287 37.64218551289963 1 0 0
8126 0 1 0 4.97851430468756 32.830461053032195 37.70902007470174 1 0 0
8104 0 1 0 0.7966183503774829 30.335325445531137 37.65430647212917 1 0 0
8112 0 1 0 2.9399747055762475 29.050618564936386 37.76860167931738 1 0 0
8054 0 1 0 2.783298207017959 19.23553415161951 38.31027638176202 1 0 0
8065 0 1 0 4.1910852815203725 19.23845991844158 38.505335138670944 1 0 0
8055 0 1 0 2.0393518108869486 20.463019742842288 38.27613383737017 1 0 0
8056 0 1 0 2.745433825269155 21.693188155711486 38.344685414048065 1 0 0
8067 0 1 0 4.2644727376264 21.682199315894632 38.40061078809947 1 0 0
8046 0 1 0 0.6582645508941392 20.476131987096633 38.149248627762056 1 0 0
8057 0 1 0 2.0632079340373757 22.90046373535335 38.235451389055115 1 0 0
8048 0 1 0 0.6485379955389405 22.95233224197726 38.17608425304244 1 0 0
8076 0 1 0 7.049023021870493 21.739579438479943 38.57237676700472 1 0 0
8077 0 1 0 6.362822130882356 22.94423275341244 38.384227792597756 1 0 0
8085 0 1 0 8.526037363089452 19.2421554037208 38.84396408734319 1 0 0
8075 0 1 0 6.379318047256966 20.464756227080034 38.62297369156815 1 0 0
8074 0 1 0 7.1517759471770574 19.229710621360848 38.72981058717143 1 0 0
8087 0 1 0 8.512866712005506 21.7178848374097 38.67343975910215 1 0 0
8066 0 1 0 4.919444297484577 20.420727562318763 38.530411782431074 1 0 0
8068 0 1 0 4.930779760875037 22.935184014323234 38.36996536220951 1 0 0
8094 0 1 0 11.3843254123127 19.270603136472797 38.97684945382667 1 0 0
8097 0 1 0 10.699883269052597 22.96144993271564 38.719303903283716 1 0 0
8096 0 1 0 11.36831805585234 21.742166820387805 38.82471889112433 1 0 0
8095 0 1 0 10.710157934748235 20.51960576284693 38.92483319936294 1 0 0
8134 0 1 0 7.0729084039960215 31.63416207856418 37.955873917060515 1 0 0
8047 0 1 0 12.770475944886634 21.704475016646594 38.92828675764532 1 0 0
8088 0 1 0 9.219373579643447 22.969627402071136 38.60722845710162 1 0 0
8086 0 1 0 9.22346048886099 20.504246528725574 38.87505608546843 1 0 0
8061 0 1 0 4.188802317665398 26.646631765191806 38.107970343367576 1 0 0
8058 0 1 0 2.825519123831328 24.0883811333029 38.22328415356796 1 0 0
8069 0 1 0 4.2118179262019355 24.163200718304648 38.27328536775454 1 0 0
8060 0 1 0 2.7687029268450543 26.64385469931139 38.07271576781574 1 0 0
8059 0 1 0 2.1058580656717476 25.397688315514195 38.15471551376198 1 0 0
8050 0 1 0 0.6624881523468926 25.418146847711302 38.107848896996735 1 0 0
8089 0 1 0 8.469619224071115 24.207806446150432 38.53783022293282 1 0 0
8078 0 1 0 7.068216693128448 24.20508265498419 38.37033878595244 1 0 0
8081 0 1 0 8.565086607475001 26.637450841654406 38.2947566651716 1 0 0
8079 0 1 0 6.364253437694122 25.4259672104451 38.269887769831506 1 0 0
8080 0 1 0 7.096100367060109 26.63636402816259 38.15209039867897 1 0 0
8070 0 1 0 4.965891020620802 25.398007018459506 38.18744619380987 1 0 0
8090 0 1 0 9.208348678031864 25.401960410430743 38.49791241430011 1 0 0
8107 0 1 0 12.773047441914626 34.0542706305573 38.298243807278965 1 0 0
8098 0 1 0 11.368722064026404 24.19179433567154 38.72665879604345 1 0 0
8100 0 1 0 11.379888692441883 26.656597201636732 38.64149942896088 1 0 0
8041 0 1 0 12.78223214214393 26.610623962171257 38.7850398145365 1 0 0
8099 0 1 0 10.605207243360505 25.437055834709767 38.60386232916835 1 0 0
7383 0 1 0 0.011174271648620946 29.156323678903664 37.86877733205774 1 0 0
8111 0 1 0 2.1100278743635723 27.878621949217408 37.936370756540164 1 0 0
7321 0 1 0 0.005972471323929085 26.675184017015813 38.044143900615346 1 0 0
8158 0 1 0 11.35905033439053 36.60274588684657 38.04130310415399 1 0 0
8102 0 1 0 0.7285390629892984 27.93852951246513 37.93606440817084 1 0 0
8147 0 1 0 8.512129905087287 34.06074510073025 37.95512441582441 1 0 0
8135 0 1 0 6.3880350052400745 32.85123373428258 37.78381422306483 1 0 0
8148 0 1 0 9.253054457629467 35.286778140372405 37.891555960063634 1 0 0
8131 0 1 0 6.405686842762517 27.807862414361466 38.08927924423284 1 0 0
8143 0 1 0 8.510769828296146 29.148280366318986 38.28823597523374 1 0 0
8132 0 1 0 7.081621855872975 29.07619197432309 38.178852632882936 1 0 0
8109 0 1 0 12.820545058092938 36.55303621193231 38.08549065331585 1 0 0
8145 0 1 0 8.533358013733277 31.599580790467794 38.055997660227 1 0 0
8133 0 1 0 6.471975006430741 30.353225783389128 38.01192443414084 1 0 0
8122 0 1 0 5.000621484101878 27.791097003430302 37.899537881160356 1 0 0
8156 0 1 0 11.366810214772858 34.112119227782216 38.20476014444118 1 0 0
8105 0 1 0 12.769844252757242 31.580571895427827 38.43918868700766 1 0 0
8153 0 1 0 10.659159780707784 30.381543936331276 38.38032786195992 1 0 0
8045 0 1 0 12.801089263840797 19.29223265008214 39.02678525607526 1 0 0
8142 0 1 0 9.242882231627213 27.87618921494332 38.40212457765765 1 0 0
8154 0 1 0 11.360180083365883 31.65086600244959 38.23196045202229 1 0 0
8151 0 1 0 10.675903054622445 27.939135972151874 38.54691369623648 1 0 0
8152 0 1 0 11.393032085164698 29.158583071094306 38.562705447366525 1 0 0
8144 0 1 0 9.225444949324592 30.3502898996436 38.227530403345966 1 0 0
8157 0 1 0 10.681567466313773 35.34341841595897 38.07848650577103 1 0 0
8103 0 1 0 12.817820363731737 29.12753741055387 38.691609108332 1 0 0
8049 0 1 0 12.831910614356262 24.21470334806135 38.83647779728148 1 0 0
8155 0 1 0 10.663912983593768 32.84529714795405 38.15216288831591 1 0 0
8146 0 1 0 9.229444260651174 32.835985710624634 38.017229989047316 1 0 0
8136 0 1 0 7.099227054368682 34.073423090600144 37.859437644447404 1 0 0
8125 0 1 0 4.338549476846573 31.550787953275563 37.82219004753889 1 0 0
8124 0 1 0 5.0154212680370245 30.32872971601682 37.91394364635251 1 0 0
8123 0 1 0 4.339811979392634 29.061572240540677 37.78936829218181 1 0 0
8149 0 1 0 8.52245123202662 36.516403265378216 37.81723276969433 1 0 0
8204 0 1 0 9.279788266729385 42.71188087178683 37.672927675807045 1 0 0
8209 0 1 0 8.539400339385773 48.8681797330971 37.64783881094725 1 0 0
8172 0 1 0 2.8122446962665215 41.41847150800724 37.40413033942432 1 0 0
8171 0 1 0 2.1274326644804815 40.213090829836986 37.20824513800923 1 0 0
8162 0 1 0 0.711654971347129 40.2131977764773 37.220547192018756 1 0 0
8173 0 1 0 2.1324610738985847 42.65576934911453 37.44384316522602 1 0 0
8175 0 1 0 2.188857912704345 45.1506227505836 37.33953808101115 1 0 0
8166 0 1 0 0.7592563822346232 45.15548301347178 37.28382079342072 1 0 0
8174 0 1 0 2.8825359832996433 43.90336121002642 37.449926763155865 1 0 0
8164 0 1 0 0.6823931532151624 42.660503824724714 37.366890489633626 1 0 0
8185 0 1 0 4.277367064896837 43.93507752411341 37.49990802036779 1 0 0
8201 0 1 0 8.60124710073076 51.389780542453195 37.66156421717961 1 0 0
8186 0 1 0 4.98106407765436 45.21339782532421 37.396147322313276 1 0 0
8220 0 1 0 11.40734293994059 51.359616963789506 37.76379203879703 1 0 0
8184 0 1 0 4.966492874543495 42.68698790675176 37.546065893848876 1 0 0
7381 0 1 0 0.024658341659129657 39.0157117072321 37.1631334074215 1 0 0
8195 0 1 0 6.3722553611397394 45.18686573963358 37.57766039637875 1 0 0
8207 0 1 0 8.524807503910326 46.440782572113655 37.71230671764494 1 0 0
8205 0 1 0 8.581931336981441 43.93603857563594 37.65622097688517 1 0 0
8219 0 1 0 10.685101022043504 50.12169301881576 37.69954061573914 1 0 0
8243 0 1 0 4.256012720646209 53.867338803662896 37.498368669737054 1 0 0
8168 0 1 0 0.6845939029790882 47.62681328026703 37.23917067583549 1 0 0
8170 0 1 0 0.7135143506351155 50.081005758819586 37.321631061181584 1 0 0
8177 0 1 0 2.0982333775351227 47.6275665019561 37.3153625253675 1 0 0
8189 0 1 0 4.2852923983474245 48.88991764970255 37.32167311937723 1 0 0
8178 0 1 0 2.856028843927859 48.90236392414724 37.36355484386927 1 0 0
8179 0 1 0 2.124401595598973 50.120858552664934 37.35746035902477 1 0 0
8176 0 1 0 2.815208529693386 46.40710726509537 37.28331206772217 1 0 0
8187 0 1 0 4.249105552895881 46.425007505974534 37.348050244014026 1 0 0
8197 0 1 0 6.349308645166244 47.660642292846966 37.48589836096795 1 0 0
8199 0 1 0 6.414218432424539 50.13688746330822 37.57102450243233 1 0 0
8188 0 1 0 4.913399487414969 47.64649307049298 37.392894576144045 1 0 0
8190 0 1 0 5.022566574129329 50.15793496926107 37.34264946473293 1 0 0
8252 0 1 0 7.106861837412289 53.880515614597876 37.51839261395646 1 0 0
8194 0 1 0 7.143630531756383 43.94067737882159 37.66309242799434 1 0 0
8193 0 1 0 6.4323175216396065 42.68763871012297 37.65849718812918 1 0 0
8182 0 1 0 5.007593672067672 40.28007768672278 37.357447139397074 1 0 0
8251 0 1 0 6.373369749187022 52.60960738815216 37.54412739932652 1 0 0
8120 0 1 0 2.850427521409664 39.021727971033194 37.11975303626942 1 0 0
8210 0 1 0 9.29236172489729 50.139520037072394 37.636964506181684 1 0 0
8196 0 1 0 7.071188031028905 46.41662155050396 37.60830209425444 1 0 0
8192 0 1 0 7.1193978136962315 41.449413779633495 37.66968651589658 1 0 0
8121 0 1 0 4.284411877227772 39.036219471392336 37.268509603404354 1 0 0
8232 0 1 0 2.7881296904603095 53.84259428702349 37.51656414556963 1 0 0
8224 0 1 0 0.6272335387927368 55.02658509411246 37.42405034489029 1 0 0
8233 0 1 0 2.040666317274322 55.06401045002732 37.47585852521622 1 0 0
8222 0 1 0 0.6780910745871169 52.59568474064334 37.36489352640194 1 0 0
8231 0 1 0 2.10984770773872 52.59092528607706 37.39952961668638 1 0 0
8262 0 1 0 9.2766789510336 52.635805266728916 37.652592414624316 1 0 0
8180 0 1 0 2.7896288208308464 51.385165641669346 37.45591361837138 1 0 0
8181 0 1 0 4.245656595845368 51.35372509394387 37.4169808771279 1 0 0
8242 0 1 0 4.972125353426 52.606202454804205 37.49102709151977 1 0 0
8191 0 1 0 6.417867846074451 40.24233679118934 37.562306186661615 1 0 0
8253 0 1 0 6.364845150805872 55.07999935739763 37.30337306594743 1 0 0
8200 0 1 0 7.151716541566272 51.373486347427914 37.61705260005938 1 0 0
8183 0 1 0 4.252728827251883 41.4521004793652 37.360721912368064 1 0 0
8140 0 1 0 7.135295579808022 39.00606281197904 37.626099876756555 1 0 0
8198 0 1 0 7.083965153802652 48.86535376712831 37.6652761837009 1 0 0
8244 0 1 0 4.90915300600515 55.074447910100474 37.34910091564856 1 0 0
8130 0 1 0 4.947502445940141 37.79505780246579 37.431361911038856 1 0 0
8110 0 1 0 0.7347272766389155 37.75196417828944 37.16924938794903 1 0 0
8119 0 1 0 2.1422884465087115 37.78616095735886 37.14918852970483 1 0 0
8263 0 1 0 8.531805303637569 53.88399801576786 37.60243998558851 1 0 0
8139 0 1 0 6.3670349287404315 37.77943967163205 37.61172567621394 1 0 0
8206 0 1 0 9.260802142599015 45.18584993620445 37.69444617582212 1 0 0
7443 0 1 0 0.0222603007692328 41.449297457712014 37.34592692356831 1 0 0
8271 0 1 0 10.76470631651491 52.612361000339035 37.717141560147596 1 0 0
8150 0 1 0 9.243358466856822 37.77888423431853 37.76420988636973 1 0 0
8203 0 1 0 8.554571218385437 41.48333407588674 37.656317763242775 1 0 0
8264 0 1 0 9.25574647677715 55.09224140191431 37.64606132579957 1 0 0
7445 0 1 0 0.005952226742493849 43.92180081837735 37.23335656648062 1 0 0
8213 0 1 0 10.725296917553731 42.69499960457379 37.767388720138534 1 0 0
8215 0 1 0 10.66279738516188 45.19346020259032 37.81116278599054 1 0 0
8165 0 1 0 12.787720306582647 43.956967226189754 38.07336165167143 1 0 0
8211 0 1 0 10.667100422188884 40.28354227692795 37.76960683396626 1 0 0
8212 0 1 0 11.456123792023517 41.49190659443612 37.814417429159406 1 0 0
8273 0 1 0 10.657560164053185 55.10749913982937 37.77431313566923 1 0 0
8159 0 1 0 10.674533387497315 37.8337803527538 37.85173699865501 1 0 0
8160 0 1 0 11.35702819582002 39.03041748845883 37.857117348140456 1 0 0
8214 0 1 0 11.378812723741419 43.932117410386354 37.86095625518685 1 0 0
8272 0 1 0 11.38448738101462 53.90407417971991 37.97272814902813 1 0 0
8218 0 1 0 11.422876914829613 48.882012325670686 37.853484112203105 1 0 0
8216 0 1 0 11.363819301594766 46.45558341841036 37.96243090708325 1 0 0
8167 0 1 0 12.755940759909995 46.41673692285424 38.111158042559545 1 0 0
8161 0 1 0 12.824207809171545 51.31821858628526 37.96257702313902 1 0 0
8169 0 1 0 12.816777605359636 48.89110402134723 38.00563451350823 1 0 0
8101 0 1 0 12.804046383416349 38.97424617173924 37.8486803755097 1 0 0
8223 0 1 0 12.772729708638911 53.8965547504574 38.166618069689875 1 0 0
8208 0 1 0 9.206184765594607 47.64563452025376 37.840464830233046 1 0 0
8141 0 1 0 8.52756518689795 39.038203338526166 37.7775495430801 1 0 0
8217 0 1 0 10.67279084595675 47.71089297792037 37.94343199283414 1 0 0
8202 0 1 0 9.268250323764486 40.259099092629334 37.81265224481076 1 0 0
8248 0 1 0 4.93062675063234 59.995268567257924 37.28152879206278 1 0 0
8226 0 1 0 0.642345963428854 57.48549317018401 37.388646335031254 1 0 0
8237 0 1 0 2.163196225238227 59.96451441129571 37.37571115937808 1 0 0
8250 0 1 0 4.977270654022157 62.44610410960693 37.39253441547688 1 0 0
8234 0 1 0 2.801330015461871 56.30366396483086 37.434917914208796 1 0 0
8256 0 1 0 7.1038925454087956 58.75466790804606 37.349044434818275 1 0 0
8228 0 1 0 0.6716759847288278 59.919391034392454 37.412248487877754 1 0 0
8323 0 1 0 8.512148135149124 66.16084469128853 37.4033647042704 1 0 0
8325 0 1 0 8.47337013910414 68.65903386124671 37.51101722155709 1 0 0
8324 0 1 0 9.251838779249288 67.48432114976465 37.52909565473174 1 0 0
8240 0 1 0 2.7993717203139203 63.71015219707168 37.31092320883749 1 0 0
8288 0 1 0 0.6792594730540354 72.28765679500098 37.20711961404966 1 0 0
8326 0 1 0 9.218080240579102 69.8851628592956 37.653148667971955 1 0 0
8280 0 1 0 11.377390720120065 63.6948883836986 37.56638655671343 1 0 0
8278 0 1 0 11.398982742767716 61.275830574829214 37.765201979050204 1 0 0
8241 0 1 0 4.270796027834892 63.71023165639874 37.451803507053896 1 0 0
8317 0 1 0 6.355764452288543 72.34575697605577 37.32263014199169 1 0 0
8307 0 1 0 4.225603429118676 71.12486872160684 37.39185711554651 1 0 0
8315 0 1 0 6.373368572434448 69.8886143014561 37.49525660335875 1 0 0
8236 0 1 0 2.793185129690023 58.72972575481336 37.345181056384234 1 0 0
8304 0 1 0 4.9559925689463125 67.38974809580274 37.42937464117817 1 0 0
8303 0 1 0 4.2470252731435405 66.13061472814951 37.461986932910236 1 0 0
8327 0 1 0 8.505406328924241 71.12714444840594 37.621184113266374 1 0 0
8314 0 1 0 7.03468827657247 68.62498692252808 37.48170478268837 1 0 0
8328 0 1 0 9.220183241641282 72.33617137416827 37.65451508353486 1 0 0
8305 0 1 0 4.263647721811795 68.62397425686544 37.47681538673144 1 0 0
8230 0 1 0 0.6900162254534848 62.44175362655309 37.23578664318158 1 0 0
8329 0 1 0 8.489383596156793 73.56013886489373 37.5059278239907 1 0 0
8316 0 1 0 7.105571266650284 71.11274771339728 37.46143142376265 1 0 0
8318 0 1 0 7.064282468596445 73.59752413825649 37.343461964456175 1 0 0
8286 0 1 0 0.6471558131712618 69.84050702581675 37.37701376769318 1 0 0
8292 0 1 0 2.8125671632755442 66.1327194646224 37.41879337896946 1 0 0
8284 0 1 0 0.690322604983607 67.36126458930613 37.35055554776693 1 0 0
8282 0 1 0 0.6240974134908815 64.93871072130565 37.23078142904607 1 0 0
8291 0 1 0 2.0665039319002867 64.92333682256188 37.34133746674039 1 0 0
8294 0 1 0 2.817931045517274 68.66818868216964 37.50957939130122 1 0 0
8293 0 1 0 2.128999076222008 67.43091586497793 37.395339772998234 1 0 0
8279 0 1 0 10.660853345686961 62.506025774220475 37.54656958322565 1 0 0
8295 0 1 0 2.0882512995489697 69.90073167984906 37.4764905994198 1 0 0
8309 0 1 0 4.255544492804689 73.56752385798674 37.199435052557526 1 0 0
8298 0 1 0 2.7930268298450662 73.60662886041096 37.16240968881629 1 0 0
8306 0 1 0 4.938555142717043 69.92015964047772 37.43261448869017 1 0 0
8297 0 1 0 2.14094468366711 72.36334360518231 37.26808564182018 1 0 0
8296 0 1 0 2.7659371397542243 71.1209238891219 37.48837944893438 1 0 0
8313 0 1 0 6.400382915807442 67.41152759616713 37.43719354275447 1 0 0
8308 0 1 0 4.950606195487409 72.31975235694354 37.20793387081078 1 0 0
8239 0 1 0 2.1254966700898152 62.45778660796693 37.330874386248325 1 0 0
8235 0 1 0 2.0313998073798825 57.500931616798745 37.44821086942137 1 0 0
8283 0 1 0 12.799828735084713 66.17011007059718 37.640780868918775 1 0 0
8238 0 1 0 2.839340438887849 61.20298947218314 37.3497846958575 1 0 0
8245 0 1 0 4.231859107234712 56.32029129585597 37.41330660959604 1 0 0
8332 0 1 0 11.346711206795796 66.20391316317648 37.643122523773435 1 0 0
8312 0 1 0 7.113475435152774 66.19218496795386 37.4137051497037 1 0 0
8302 0 1 0 4.984381217686038 64.92553850306359 37.415384169935734 1 0 0
8333 0 1 0 10.681757913646956 67.4530491284937 37.65540458362602 1 0 0
8259 0 1 0 6.405004357307326 62.49749262931641 37.28470858661857 1 0 0
8265 0 1 0 8.536321297458269 56.27704398233483 37.54022578040267 1 0 0
8255 0 1 0 6.364346320652738 57.517959982351094 37.403485023991855 1 0 0
8249 0 1 0 4.272695557466873 61.21686391822041 37.345692529468856 1 0 0
8260 0 1 0 7.101161573968194 63.73621707852762 37.316080218938964 1 0 0
8269 0 1 0 8.56401176354449 61.247853595735826 37.41578516372991 1 0 0
8270 0 1 0 9.242381486925805 62.47911620590214 37.49465343758703 1 0 0
8247 0 1 0 4.196019926766179 58.77912834482814 37.30254981936839 1 0 0
8254 0 1 0 7.055226079148163 56.31034107837999 37.39732125504242 1 0 0
8311 0 1 0 6.358012460431586 64.91611199567336 37.401604296750335 1 0 0
8246 0 1 0 4.941023205289243 57.49892462947816 37.31424457345162 1 0 0
8257 0 1 0 6.3551793946555435 60.03437716908056 37.267165027211135 1 0 0
8258 0 1 0 7.141334212743093 61.26059462007273 37.28693223593368 1 0 0
8322 0 1 0 9.241446936538848 64.96223799297861 37.46078543523165 1 0 0
8267 0 1 0 8.529097626328191 58.80288365458279 37.458965537507105 1 0 0
8266 0 1 0 9.22897932885899 57.52497439844013 37.59005476919676 1 0 0
8277 0 1 0 10.676862222519214 60.028714652265386 37.73235630785306 1 0 0
8331 0 1 0 10.697050775294551 64.98964293744508 37.49192200466797 1 0 0
8268 0 1 0 9.283129477813192 60.00797493296435 37.447072028557514 1 0 0
8261 0 1 0 8.533864607303673 63.741752196351904 37.41758396529714 1 0 0
8275 0 1 0 10.679763446885486 57.532340471409974 37.73480010767317 1 0 0
8221 0 1 0 12.787872978557285 63.689433599869666 37.73807371766091 1 0 0
8289 0 1 0 12.798640345177821 73.59937475852993 37.97909479183696 1 0 0
8274 0 1 0 11.34217306634612 56.30124445616229 37.98418224879513 1 0 0
8229 0 1 0 12.754082553745427 61.284412523162835 38.01874411415618 1 0 0
8225 0 1 0 12.753483812573416 56.317177859568005 38.24930515915692 1 0 0
8285 0 1 0 12.803998676371465 68.64213411094613 37.91748636590897 1 0 0
8337 0 1 0 10.667038923163288 72.33147962056425 37.8364668646357 1 0 0
8287 0 1 0 12.783491556343458 71.12461724231395 38.04610959701118 1 0 0
8336 0 1 0 11.354414055799863 71.12682851471759 37.96169085390019 1 0 0
8276 0 1 0 11.433447971678765 58.80527497605191 37.83127411419636 1 0 0
8335 0 1 0 10.601221122442157 69.8694307496366 37.84597282601421 1 0 0
8338 0 1 0 11.359347612150112 73.62544773663973 37.93366285888621 1 0 0
8334 0 1 0 11.371273345797414 68.68296101407829 37.772552168119475 1 0 0
8227 0 1 0 12.82246188663742 58.85370631818294 38.13511772585696 1 0 0
8351 0 1 0 2.0624214874930997 77.30410603978623 37.12091230597938 1 0 0
8363 0 1 0 4.116446579124878 78.57655783475944 37.168791543005554 1 0 0
8352 0 1 0 2.713457590643105 78.5345459617485 37.06753558974325 1 0 0
8300 0 1 0 2.7336490610733097 76.07265189560701 37.15214381707465 1 0 0
8301 0 1 0 4.166889013457098 76.08022884802766 37.18092430302147 1 0 0
8342 0 1 0 0.643959397834997 77.2635174114126 37.09293099490008 1 0 0
8290 0 1 0 0.6313359837327843 74.77519593582353 36.98184694195038 1 0 0
8299 0 1 0 2.0688599200312545 74.8390712078766 37.05420047363776 1 0 0
8310 0 1 0 4.896868967278688 74.84487318651898 37.197546363260194 1 0 0
8392 0 1 0 11.38636558578223 78.50271615694594 37.551587522199895 1 0 0
8356 0 1 0 2.723736920984372 83.46811816647677 37.51420153277983 1 0 0
8371 0 1 0 6.317936705433162 77.35755066775577 37.273346484472484 1 0 0
8321 0 1 0 8.473555139331946 76.10083195592863 37.357172743412974 1 0 0
8320 0 1 0 7.0533471144505695 76.0803341552118 37.324599971752015 1 0 0
8362 0 1 0 4.893411143063982 77.38228053330639 37.20025536920215 1 0 0
8319 0 1 0 6.344118202793801 74.8282594285439 37.23839081161514 1 0 0
8365 0 1 0 4.1977629181712395 81.00026327057874 37.21456667777965 1 0 0
8386 0 1 0 9.251935504843592 82.27140482415703 37.57738534609346 1 0 0
8387 0 1 0 8.497744051127361 83.49921746969113 37.70498508403102 1 0 0
8330 0 1 0 9.192207495053234 74.83668465221123 37.6074076040365 1 0 0
8340 0 1 0 11.355235189297485 76.04787702787469 37.625485934709175 1 0 0
8343 0 1 0 12.809695893429744 78.50663294175895 37.66061293826509 1 0 0
8364 0 1 0 4.921204087154482 79.80368061750119 37.218733606193624 1 0 0
8382 0 1 0 9.192700049197528 77.32516523091608 37.30149480104534 1 0 0
8373 0 1 0 6.378774679439686 79.81912498473297 37.34291390691127 1 0 0
8344 0 1 0 0.6661255338949872 79.74682696453328 37.144786243475565 1 0 0
8354 0 1 0 2.72711339016494 81.01891281787752 37.25295805126511 1 0 0
8346 0 1 0 0.6118165497789639 82.25149372745989 37.33969596669184 1 0 0
8355 0 1 0 2.0364269731611038 82.23188025074818 37.36708014032572 1 0 0
8353 0 1 0 2.0277359385803875 79.79575586893051 37.15812821587041 1 0 0
8375 0 1 0 6.342702064653247 82.21471890372665 37.499498676900316 1 0 0
8367 0 1 0 4.2069718556699405 83.47210766270595 37.61017292999023 1 0 0
8357 0 1 0 2.040783146902906 84.70697004642703 37.73884868126192 1 0 0
8372 0 1 0 7.118848162267252 78.59069246323546 37.33036858772044 1 0 0
8383 0 1 0 8.543189832063423 78.57244103162942 37.18875335712375 1 0 0
8374 0 1 0 7.117079308119271 81.0468238980543 37.3415077279947 1 0 0
8394 0 1 0 11.36217981572791 81.00713025685607 37.68852396360538 1 0 0
8348 0 1 0 0.6121360994809346 84.68403443367656 37.652708155843726 1 0 0
8366 0 1 0 4.911960241410842 82.2067402147482 37.418518722151944 1 0 0
8391 0 1 0 10.632060914599315 77.28497443107429 37.52054995601544 1 0 0
8385 0 1 0 8.519190900607393 81.03920354684615 37.40374097709168 1 0 0
8384 0 1 0 9.270381068707835 79.77613447663462 37.3545625909634 1 0 0
8376 0 1 0 7.0372601532767405 83.48315925634463 37.66058003166376 1 0 0
8393 0 1 0 10.679354526859315 79.75086690133314 37.554205980344356 1 0 0
8377 0 1 0 6.341569001675974 84.7112815591109 37.761669025504006 1 0 0
8395 0 1 0 10.683467784666512 82.26477680607377 37.72426481751307 1 0 0