(written by ASE)

13140 atoms
3 atom types

0.0      154.00799999999998  xlo xhi
0.0      148.19999999999999  ylo yhi
0.0      151.07609208607428  zlo zhi

Masses

     1      12.010999996910238 # C
     2      1.0079999997406979 # H
     3      15.998999995884349 # O

Atoms # full

     1   0   1   0.0      24.447514938304405     0.82125014758274062      32.219088267985803
     2   0   1   0.0      12.272991679782109     -10.311481871741769      33.215946857599121
     3   0   1   0.0      24.528357214864602     -9.0004029395273104      33.177224369517994
     4   0   1   0.0      12.230463087968884     -7.8451947380995186      33.139549986629646
     5   0   1   0.0      24.457356835511721      -6.550422295125971      32.858618135816364
     6   0   1   0.0      12.271829382468404     -5.3760361693810221      33.041001455494801
     7   0   1   0.0      24.398366783587246     -4.1461956266870432      32.529512546466471
     8   0   1   0.0      12.263405563992617     -2.9108173615169384      32.972995984956192
     9   0   1   0.0      24.465585070971446      -1.679538740075686      32.231719471814039
    10   0   1   0.0       12.25840890372783    -0.40773606903722415      32.788288026286082
    11   0   1   0.0      13.721414162824345     -10.324769615243101      33.243953137382867
    12   0   1   0.0       14.38740409489839     -9.0798376084907559      33.124373679485871
    13   0   1   0.0      13.675645632853197     -7.8473233843989298      33.215084017354371
    14   0   1   0.0      14.400946101458254     -6.5891783478422825      33.131673703019082
    15   0   1   0.0      13.765805689918645     -5.3532232627065319      33.015020107601629
    16   0   1   0.0      14.445130777866284     -4.0752671749825824      32.956564907921447
    17   0   1   0.0      13.696686903522917     -2.8479563403294885      32.985638612650575
    18   0   1   0.0      14.397557832245488     -1.5809743454145506      32.861593952949214
    19   0   1   0.0      13.702002444931772    -0.37280299186711274      32.774713640712413
    20   0   1   0.0      14.429929220016394     0.83364959658852344      32.721420826212444
    21   0   1   0.0      15.855006345857666     0.75671429542211943      32.682880214377697
    22   0   1   0.0      16.565290380110341     -10.253801274625522      33.390704558285897
    23   0   1   0.0      15.813551994833212     -9.0517542273778151      33.222896774578153
    24   0   1   0.0      16.544944138179737     -7.8261974414957747      33.177304049255781
    25   0   1   0.0       15.83937990595715     -6.5840533547872697      33.146496576185122
    26   0   1   0.0      16.541692772869158     -5.3569993467303068       33.01018338452527
    27   0   1   0.0       15.85480273075045     -4.1226314208001433      32.997551343543449
    28   0   1   0.0      16.573923236203161     -2.8589125567208158      32.905714272075535
    29   0   1   0.0      15.846965338611914     -1.6523132316762128      32.793101507236493
    30   0   1   0.0      16.524988457138416    -0.42681548271568154      32.739600909380734
    31   0   1   0.0      17.953755941500756      -10.27806055659682      33.380033328354187
    32   0   1   0.0      18.671747929973879     -9.0320146612086543      33.218842333468679
    33   0   1   0.0      17.975951402717797     -7.8236321846491723      33.185751915789631
    34   0   1   0.0      18.726196122216656     -6.5733561140530181       33.18706237735546
    35   0   1   0.0      18.001158650400626     -5.3390914809780643      33.055704219643154
    36   0   1   0.0      18.691184112817613     -4.1067123534048138      32.798818391983403
    37   0   1   0.0      18.014467098372489     -2.8940653078741256       32.78031357651539
    38   0   1   0.0       18.66423948263596     -1.6300398472705866       32.64711366087252
    39   0   1   0.0      17.977382363828827    -0.35102251698206699      32.659192112464169
    40   0   1   0.0      18.694062400687336     0.84256087482893405       32.61323754696101
    41   0   1   0.0      20.129024275534512     0.81778048750871846       32.52335836772842
    42   0   1   0.0      20.795453632170407     -10.304540149945382      33.413062043659828
    43   0   1   0.0      20.099697478128487     -9.0431680713044891      33.256164370227054
    44   0   1   0.0      20.906471657239926     -7.8342997202356051      33.124988922674937
    45   0   1   0.0      20.218331328385247     -6.6123993839495414      33.037842011487193
    46   0   1   0.0      20.854696033296602     -5.3621008229779372      32.864760036038646
    47   0   1   0.0       20.14068552859607     -4.1317954512426489      32.730184936553883
    48   0   1   0.0      20.866216637795855     -2.8815726484727686      32.536362998308498
    49   0   1   0.0      20.128254138258331     -1.6505193157168547      32.591409956972043
    50   0   1   0.0       20.86214132937236    -0.42840555180578765      32.457913990471866
    51   0   1   0.0      22.266805700835693     -10.226268144291009      33.335426341224938
    52   0   1   0.0      23.039256549512352     -9.0525335804657416      33.275133107072897
    53   0   1   0.0      22.372732553510566     -7.8405021291321271      33.091536603355252
    54   0   1   0.0      23.005442972263779     -6.6037783933594296      32.913612069989185
    55   0   1   0.0      22.272035555707202     -5.3910197447079611      32.866682002392828
    56   0   1   0.0      22.987216042944848     -4.1270326765203826       32.62196370197271
    57   0   1   0.0      22.312889876080789     -2.8967914254587042      32.496895940594939
    58   0   1   0.0      23.016171847503976      -1.664697770673581      32.305454991802783
    59   0   1   0.0      22.301547126268932    -0.42113241183645811      32.333840800929629
    60   0   1   0.0      23.039499270557144     0.79426347429537059      32.351127180694192
    61   0   1   0.0      24.311095776073635      13.174134094359113      31.803038902556899
    62   0   1   0.0      12.254615012670076      2.0344540875245305      32.672471559722439
    63   0   1   0.0      24.413096432326579      3.2566140731895761      32.151534625936939
    64   0   1   0.0      12.261241524782907      4.5143050755957299      32.478702090448117
    65   0   1   0.0      24.367783033651325       5.721770513979302      31.925183545963602
    66   0   1   0.0      12.221142867047961      7.0052481884521445      32.320432913908547
    67   0   1   0.0      24.399998410295481      8.1587995655005354      31.667298395721218
    68   0   1   0.0      12.238905865348414      9.4326670289621255      32.145912224000924
    69   0   1   0.0      24.375121906547843      10.672647148311412      31.785043543646076
    70   0   1   0.0      12.239465777562639       11.90656738246169      31.993535946668231
    71   0   1   0.0      13.665535908415812      2.0380541671770058      32.532938154516437
    72   0   1   0.0      14.365456234947567      3.2700408828468506      32.535119235733852
    73   0   1   0.0      13.672161610500298      4.5183732977590765      32.547354751887397
    74   0   1   0.0      14.416892523620751      5.7500945552239804      32.469379949614144
    75   0   1   0.0      13.680040539110456      6.9741632958755453      32.277481431184988
    76   0   1   0.0      14.387231531369135      8.1523141404822894      31.995804921391741
    77   0   1   0.0      13.701464047484698      9.4518426379662142      31.972276349772116
    78   0   1   0.0       14.40508090832998      10.673131847423816      31.867470383115766
    79   0   1   0.0      13.684788583945663      11.827917897166344      31.833312674679142
    80   0   1   0.0      14.303583386681963       13.05684973459149      31.658683139360502
    81   0   1   0.0      15.742065326028541      13.075399753186803      31.711260733368093
    82   0   1   0.0      16.537387816726262      2.0232883721248047      32.602710589035617
    83   0   1   0.0       15.80441414266766      3.2347556846032326      32.511100238418003
    84   0   1   0.0      16.531967954265333      4.4864324321574935       32.51517233589216
    85   0   1   0.0      15.849222337219707      5.7134632614715102      32.403962274832097
    86   0   1   0.0       16.57763614642694      6.9120346760407072      32.146985040838253
    87   0   1   0.0      15.864893328743776      8.1633122256722768      31.981493411748779
    88   0   1   0.0      16.590091303574965      9.3961212490023733      31.829340260543407
    89   0   1   0.0      15.830689872221585       10.60923368472305      31.743736673347627
    90   0   1   0.0       16.53916142385896      11.886382025489306      31.765296297928828
    91   0   1   0.0      17.969005567774701      2.0305352021648693        32.5811950646642
    92   0   1   0.0      18.709738583643549      3.2635781298628483      32.515106371935303
    93   0   1   0.0      17.979709247156134      4.4945404825920257      32.412364926547859
    94   0   1   0.0      18.682215352297074      5.7622619955527847      32.176477830533727
    95   0   1   0.0      17.982798515231192      6.9476685473576127      32.024008591967878
    96   0   1   0.0      18.726679018911213      8.1762908323651828      31.825364660758829
    97   0   1   0.0      18.038809779852514      9.4229310584859984      31.819901235515268
    98   0   1   0.0      18.689586210485921      10.675406375406725      31.911274159615484
    99   0   1   0.0      18.005815902931591      11.939321070755399      31.950134716663698
   100   0   1   0.0      18.637284948992654      13.145090359945103      31.953465016431604
   101   0   1   0.0       20.09880308629171      13.148426356309452      31.852721476832389
   102   0   1   0.0      20.917241422745739      2.0442949136316364      32.432280546593645
   103   0   1   0.0      20.166867034633736      3.2185249408020766      32.477548494340205
   104   0   1   0.0      20.860484573792569      4.5055388207283134      32.242237977892202
   105   0   1   0.0      20.100304913783837      5.7408472518702629      32.077580996701357
   106   0   1   0.0      20.800565974210588      6.9574864226807387       31.89236543859106
   107   0   1   0.0      20.136371251854129      8.1938151942000399      31.754674681524452
   108   0   1   0.0      20.865725537331397      9.4357890210842914      31.817244538658759
   109   0   1   0.0      20.149171043188897      10.678466098006641      31.830362751037569
   110   0   1   0.0      20.815084605072567      11.975778298881128      31.809392268575326
   111   0   1   0.0      22.297872763418983      2.0185606998578796      32.379708796046494
   112   0   1   0.0      22.989346989042822       3.277057572212255      32.296502247949029
   113   0   1   0.0      22.234176640221524      4.4887975606413866      32.145688804760042
   114   0   1   0.0      22.930748814579147      5.6776963229041613      32.007889560212099
   115   0   1   0.0      22.225332593359582      6.9272003811200609      31.839570818674368
   116   0   1   0.0      22.980345102306288      8.1638910343711277      31.703711227317303
   117   0   1   0.0      22.258940089300246      9.4453598714556826      31.705492745856475
   118   0   1   0.0      22.951877864496442      10.671465744862026       31.80135752969327
   119   0   1   0.0      22.256077278376456      11.925979331230208      31.852304266007774
   120   0   1   0.0      22.926215987097486      13.170285402512199      31.794382351483971
   121   0   1   0.0      24.323709311133875      25.444613111943092      32.406716038655617
   122   0   1   0.0      12.173256077160492      14.363591586232134      31.756160466075173
   123   0   1   0.0      24.337127685559899      15.684746521472793      31.809270200231669
   124   0   1   0.0      12.201805659549944      16.844833896406755      31.817160294814009
   125   0   1   0.0      24.346566984393977       18.12189339974201      31.963109593965815
   126   0   1   0.0      12.216999439509127      19.384061630266928      31.970234765378809
   127   0   1   0.0      24.362510575249356       20.57333661865713      32.187239260653541
   128   0   1   0.0      12.287627231364134      21.801425065550276      32.121075489404163
   129   0   1   0.0      24.350174753529711      22.991575229827188      32.432219644788212
   130   0   1   0.0        12.2663146811862      24.276521139684945      32.284817559010357
   131   0   1   0.0      13.613464926335089      14.338505887323754       31.72173081537187
   132   0   1   0.0      14.363226299503225      15.556936814283949      31.765216791851252
   133   0   1   0.0      13.651303293125769      16.816023565142686      31.811520674544319
   134   0   1   0.0      14.341625955340175        18.0472211236271      31.981096060737812
   135   0   1   0.0      13.603266941287815      19.293760328772279      32.080024117429311
   136   0   1   0.0      14.379282208399319       20.52784763881878      32.102235295605091
   137   0   1   0.0      13.700128079932245       21.75478029208098      32.136347815253927
   138   0   1   0.0      14.420947728462782      23.002425855475515      32.194580296021186
   139   0   1   0.0      13.692233646179282      24.228311360013347      32.276647629227369
   140   0   1   0.0      14.373779198771715      25.501348361548004      32.275396940039457
   141   0   1   0.0      15.846574849053813      25.486169982653028      32.227227637226676
   142   0   1   0.0      16.461850131212817      14.349902680246823      31.760937167387873
   143   0   1   0.0      15.796940306408462      15.583683094502526      31.789799787464435
   144   0   1   0.0      16.474104983884832      16.836682549284365      31.941436053409557
   145   0   1   0.0      15.773511060461029      18.020573722287043       32.00207164846087
   146   0   1   0.0      16.478088622646585      19.287370748984035       32.14413486961309
   147   0   1   0.0      15.793532904031096      20.543996231353336      32.148109830544712
   148   0   1   0.0      16.528991918224076      21.769445549442299      32.204774638027473
   149   0   1   0.0      15.878118902209788        23.0557836292556      32.174072651988538
   150   0   1   0.0      16.559470650247945      24.281145295962556      32.321411937476441
   151   0   1   0.0      17.899317543704555      14.405914294228738      31.921877438904424
   152   0   1   0.0      18.671939862114041       15.64711459594055      31.929692140837876
   153   0   1   0.0       17.91258257341676      16.789916296603391       31.93912399963456
   154   0   1   0.0      18.610210130953519      18.055321800046787      32.153591726171129
   155   0   1   0.0      17.911892610458072      19.252359615892779      32.247373530293508
   156   0   1   0.0      18.628007905680562      20.496967070427022      32.489959556217009
   157   0   1   0.0      17.945638833985029      21.749895659131241       32.32567294281921
   158   0   1   0.0      18.651933312984728      23.001396544980977      32.417607878903212
   159   0   1   0.0      17.986118567849019      24.248766286931623      32.412998499778389
   160   0   1   0.0      18.666110740297732      25.547408439202503      32.429355739224533
   161   0   1   0.0      20.042227780761916      25.540410323130029      32.403153004319321
   162   0   1   0.0      20.790895125368916      14.405589798957765      31.784041655575333
   163   0   1   0.0      20.088663717610473      15.642490739220888      31.958829522046056
   164   0   1   0.0      20.786734595053936      16.855816414592532      32.022361313911183
   165   0   1   0.0      20.063747468896917      18.063440846303237      32.313791229990414
   166   0   1   0.0      20.791454116473808      19.310280722985389      32.465498210273942
   167   0   1   0.0      20.083114339264075      20.538522631444351       32.55126601260141
   168   0   1   0.0      20.828755521363572      21.741197096216503       32.57991633217798
   169   0   1   0.0      20.100425790448231      22.973859983131902      32.535238098864788
   170   0   1   0.0      20.751921127736637      24.259737597183253      32.514979854353236
   171   0   1   0.0      22.243115748303104      14.437280128712281      31.683412173219846
   172   0   1   0.0      22.947027211922272      15.676795910467911      31.767099051220701
   173   0   1   0.0      22.192824144154688      16.850588688438453      31.961812407117403
   174   0   1   0.0      22.924661802677793      18.062774958013534      32.121805178989263
   175   0   1   0.0      22.237040501053521      19.307669486562265      32.307734931928856
   176   0   1   0.0      22.961487679272956      20.538423836604103       32.34286422513064
   177   0   1   0.0      22.220075120966239      21.755049084708993      32.492357135940701
   178   0   1   0.0      22.921801019771749      22.996439641184441      32.482259169783653
   179   0   1   0.0      22.209784492999223      24.251671914427384      32.439064896341868
   180   0   1   0.0      22.919857845335464      25.475047179384006      32.421837819835979
   181   0   1   0.0      24.491506668662623      37.799044068140603      32.662795972138014
   182   0   1   0.0      12.263824257999623      26.734886372235497      32.195427739596347
   183   0   1   0.0      24.416484918427479      27.960178029131455      32.266914860270312
   184   0   1   0.0        12.3293550147879      29.206283960192927       32.18581618042905
   185   0   1   0.0      24.396132628731952      30.401064500254137      32.532707143682934
   186   0   1   0.0      12.295222053610576      31.669505967045666      32.300097336706187
   187   0   1   0.0      24.493753001676332      32.890446520822863      32.516883004144859
   188   0   1   0.0      12.278423730672129      34.171267190135531      32.284624348761959
   189   0   1   0.0      24.444532075394257      35.327246372832782      32.509212162288385
   190   0   1   0.0      12.280521875542174      36.675814449772133      32.389798877206346
   191   0   1   0.0      13.678164223221993      26.750343266563686      32.288684615167014
   192   0   1   0.0      14.426923933242175      27.978323584811829      32.183812850898782
   193   0   1   0.0      13.743807036726205      29.202345628960558      32.209198797546058
   194   0   1   0.0      14.392274198829153      30.475216192185986      32.295460195313559
   195   0   1   0.0      13.715159226572069      31.677081449132384      32.383580112478953
   196   0   1   0.0      14.421057630338801      32.896114567116939      32.415412717702196
   197   0   1   0.0      13.754051628169664      34.125875782864718      32.318375555327563
   198   0   1   0.0      14.461683326831228      35.409056305252911      32.389338100862219
   199   0   1   0.0      13.734435891882445      36.658029601996049      32.453358944954971
   200   0   1   0.0      14.438579528022348      37.852557496681868      32.459497132497262
   201   0   1   0.0      15.878223512171662      37.887491954212955      32.651566952232557
   202   0   1   0.0      16.535740929154819      26.765065576991695      32.238463562753132
   203   0   1   0.0      15.864414293808244      27.974062890098022      32.164214013741997
   204   0   1   0.0       16.56498185253594      29.214574051492892      32.149151199075405
   205   0   1   0.0      15.865076970443413       30.47468155150349      32.329929679218857
   206   0   1   0.0      16.583594629756579      31.685795653815113      32.377960295823755
   207   0   1   0.0       15.83932009542065      32.908455719714446      32.378617642401089
   208   0   1   0.0      16.530713814403157      34.183901148142795      32.406280919722313
   209   0   1   0.0      15.854352167546301      35.458623200743553      32.455953635104372
   210   0   1   0.0      16.571004825778051      36.651554573606518      32.530841073228054
   211   0   1   0.0      17.949800708788807      26.781246561503742      32.358227171205662
   212   0   1   0.0      18.676370967827228      28.024305887607426      32.240324759594877
   213   0   1   0.0      17.999485331479065       29.25429659099601      32.182576134049661
   214   0   1   0.0      18.708360881795436      30.458863311644055      32.258076397576659
   215   0   1   0.0      18.019877215347019       31.67085456447138      32.357731208079109
   216   0   1   0.0      18.715926367834317      32.905356086172539      32.357844365114403
   217   0   1   0.0       17.94862056936546      34.187635807446178      32.359873795782256
   218   0   1   0.0      18.727453103269063      35.419736415758244      32.394398239057622
   219   0   1   0.0      17.984641107216028      36.660234072204766      32.474401344441247
   220   0   1   0.0      18.739595917298296      37.839258913497964      32.531870680556068
   221   0   1   0.0       20.15083138797679      37.883113916775457      32.602738927982195
   222   0   1   0.0       20.82598701743246      26.703123856065822      32.396056000986725
   223   0   1   0.0      20.083806693508333      27.953648695472317      32.276240037328108
   224   0   1   0.0      20.870213600443943      29.209167292457803      32.302168745861422
   225   0   1   0.0      20.146099261458041      30.436103309750855      32.230505753572466
   226   0   1   0.0      20.898613155953356      31.656886726833342       32.37675895852275
   227   0   1   0.0      20.125178408279378      32.911171357170879      32.401227921945463
   228   0   1   0.0      20.872310614951193      34.166507720645235      32.510662838321451
   229   0   1   0.0      20.119323541656879       35.41397729435424      32.491052333519633
   230   0   1   0.0      20.866250062564934      36.657462871390123      32.626505355776928
   231   0   1   0.0      22.265242498167716      26.738863087263116      32.466732851932811
   232   0   1   0.0      22.959772446608739      27.985204895899763      32.419121009116409
   233   0   1   0.0      22.254236625563554      29.246199398087938      32.354643973227141
   234   0   1   0.0      22.957663911967018      30.420118534623576      32.437692047254771
   235   0   1   0.0      22.314215943477926      31.695531967676725      32.496778504150974
   236   0   1   0.0      23.032424431335201      32.913572078495839      32.547435497808991
   237   0   1   0.0      22.267958082950265       34.17295871385609      32.485725979789592
   238   0   1   0.0      23.042808600278278      35.376038052102821      32.586046651544429
   239   0   1   0.0      22.306506588668043      36.615518713657515      32.550288786632855
   240   0   1   0.0      23.060139425525652      37.839767760119763      32.584950408612862
   241   0   1   0.0       24.44743701619127      50.201485807729973      33.406372257840054
   242   0   1   0.0      12.346042514478212      39.097022421855719      32.524467713517303
   243   0   1   0.0       24.53118291948029      40.290372917958713      32.812353878294068
   244   0   1   0.0      12.351489020695556      41.566822770685135      32.702622014527726
   245   0   1   0.0      24.436143394261261      42.730202103927617      33.016061746066455
   246   0   1   0.0      12.318163931320107      44.016585523509313      32.953834746566379
   247   0   1   0.0      24.476941257008942      45.239415256575924      33.117074605426296
   248   0   1   0.0      12.308879520499165      46.534007871148276      32.921949717547008
   249   0   1   0.0      24.447572091036722       47.71645732245446      33.453682277412483
   250   0   1   0.0       12.36797859889715      48.983784204449101      32.941523370404894
   251   0   1   0.0       13.71798499110785      39.137110620750789      32.485952116560448
   252   0   1   0.0      14.451149413785258      40.344601799743252      32.578550221226351
   253   0   1   0.0      13.753884456837445      41.582629677311289       32.76951605248891
   254   0   1   0.0        14.4620252237433      42.824279300714956      32.836953896695398
   255   0   1   0.0        13.7558484353948      44.039744466721999      32.976419939489382
   256   0   1   0.0      14.453169700352886      45.256398565446801      33.081060483812081
   257   0   1   0.0      13.743385318401318      46.516159943256056      33.031961819279047
   258   0   1   0.0      14.561439481053558       47.72954131770701      33.036094814204723
   259   0   1   0.0      13.790020844775258       48.95697648564758      33.089828388143538
   260   0   1   0.0       14.46377165636231      50.204704969954022      32.970869382517748
   261   0   1   0.0      15.901485705334222      50.173897977557928      33.096215329911054
   262   0   1   0.0      16.586877514994626      39.102519113811269      32.642527707106865
   263   0   1   0.0      15.868951123473124      40.327197676841266      32.594836716250306
   264   0   1   0.0      16.594636712270905      41.555899039801929      32.712543166301785
   265   0   1   0.0      15.852023121652705      42.764503410428603      32.872105202701093
   266   0   1   0.0      16.558461360955906      43.995473356725334       32.99514434981122
   267   0   1   0.0      15.851094130422895      45.207891760474375      33.129917428718969
   268   0   1   0.0      16.594380512743768       46.42839026814918      33.154424662984034
   269   0   1   0.0      15.938448224238012      47.706380963546984      33.168759124716637
   270   0   1   0.0      16.653809763803132      48.932164892552656      33.225300353346768
   271   0   1   0.0      17.988065916206072      39.104777582682701      32.657864211456186
   272   0   1   0.0       18.67792700971517      40.369620571868687      32.644878293398868
   273   0   1   0.0      18.001701817406669      41.597623858973748        32.6836925202022
   274   0   1   0.0      18.756629914568304      42.815343551910885      32.831835384559561
   275   0   1   0.0      17.986084370636018       44.02482771019924       32.96673811788817
   276   0   1   0.0      18.754649072209403      45.252788724964887      33.059160254041423
   277   0   1   0.0      18.041250560102551       46.48659547421542      33.164199782645525
   278   0   1   0.0      18.736236341961384      47.703556050581014       33.25881641901961
   279   0   1   0.0      18.073580020631251       48.96732830214868      33.317144491672266
   280   0   1   0.0      18.730288185486753      50.255224587137796      33.305669780447516
   281   0   1   0.0      20.133147816101626      50.196471814467792      33.391032854175535
   282   0   1   0.0      20.919974602478913      39.104276663660656      32.715322011929409
   283   0   1   0.0      20.170275389611618       40.36655973733383      32.631517494478864
   284   0   1   0.0      20.876728055196988      41.594719192892931      32.733705568543968
   285   0   1   0.0      20.158405725600698       42.80967988783356      32.966552183006748
   286   0   1   0.0      20.860834526414287      44.041084636328129      32.984279135309549
   287   0   1   0.0      20.168297583704952      45.298811509495373      33.105603717123095
   288   0   1   0.0      20.884553504631011       46.55298215701292      33.245840859843547
   289   0   1   0.0      20.149501775163859      47.730194727923724      33.261503200450036
   290   0   1   0.0        20.8632662063551      48.984816985364866      33.426333982930693
   291   0   1   0.0      22.365645623019688      39.106407260535619      32.704059337062603
   292   0   1   0.0      23.065612966914973      40.322777378447377       32.79430838667065
   293   0   1   0.0      22.356745048047532      41.554059063829108      32.801140010502721
   294   0   1   0.0      23.010480808382688      42.781748934720135      32.952570662664371
   295   0   1   0.0      22.311252355498077      44.032885715173926      33.019240385190365
   296   0   1   0.0      23.079035845920895      45.199311683201607      33.143686458416482
   297   0   1   0.0      22.323163633857568      46.461882561120717      33.262018527573325
   298   0   1   0.0      23.022977787389522      47.703392275973052      33.374678368214916
   299   0   1   0.0      22.314248040856871      48.972600836005874      33.389043500113509
   300   0   1   0.0      23.023859236226951      50.248326225825743      33.363167121252914
   301   0   1   0.0      24.472366670558227      62.526538373177992      33.808255414378429
   302   0   1   0.0      12.387242517543671      51.425482996345067      32.978038413088036
   303   0   1   0.0      24.465472604618697      52.685360691656335      33.461362659024189
   304   0   1   0.0       12.36248840350536      53.902076853242413      33.135982912711526
   305   0   1   0.0      24.530738694265661      55.149857747325221      33.278925269101556
   306   0   1   0.0      12.355180060715076      56.401034475390261      33.039111686953653
   307   0   1   0.0      24.547906221322698      57.650205950658631       33.25570793724831
   308   0   1   0.0      12.350849124747642      58.860762491653929      32.989218608119828
   309   0   1   0.0      24.524457799108021      60.073512764569074      33.477123295556559
   310   0   1   0.0      12.389657718647435      61.330851549810525      32.694724053184579
   311   0   1   0.0      13.811656109554178      51.446563640478466        33.0014713922982
   312   0   1   0.0      14.540506093593182      52.736557493299543       32.93710690084945
   313   0   1   0.0      13.740008304571738      53.908990241353514      33.084721119165401
   314   0   1   0.0      14.487232488715144      55.122687871969021      33.212169523290505
   315   0   1   0.0      13.794538762366052      56.369688966205317      33.143305268724362
   316   0   1   0.0      14.514599094526913      57.591875744930299       33.19105266628852
   317   0   1   0.0      13.825150567282108      58.848138091433626      33.148376708513879
   318   0   1   0.0      14.505624449163411      60.077441752577371      32.998503945920611
   319   0   1   0.0      13.835051300359494      61.327577055746822      32.773997985808165