LAMMPS (4 Feb 2025)
OMP_NUM_THREADS environment is not set. Defaulting to 1 thread. (src/comm.cpp:99)
  using 1 OpenMP thread(s) per MPI task
# LAMMPS script for continuing NVT simulation

atom_modify map yes
newton      on

read_restart nvt_prod.restart.1120000
Reading restart file ...
  restart file = 4 Feb 2025, LAMMPS = 4 Feb 2025
  restoring atom style full from restart
  orthogonal box = (0 0 0) to (154.008 148.2 151.07609)
  16 by 8 by 13 MPI processor grid
  pair style symmetrix/mace stores no restart info
  20640 atoms
Finding 1-2 1-3 1-4 neighbors ...
  special bond factors lj:    0        0        0       
  special bond factors coul:  0        0        0       
     0 = max # of 1-2 neighbors
     0 = max # of 1-3 neighbors
     0 = max # of 1-4 neighbors
     1 = max # of special neighbors
  special bonds CPU = 4.891 seconds
  read_restart CPU = 5.111 seconds

pair_style  symmetrix/mace
pair_coeff  * * ../../../../00-common/models/ch2o-dens-inv_swa-1-6-8.json C H O
Loading MACE model from '../../../../00-common/models/ch2o-dens-inv_swa-1-6-8.json' ... success
  mapping LAMMPS type 1 (C) to MACE type 1
  mapping LAMMPS type 2 (H) to MACE type 0
  mapping LAMMPS type 3 (O) to MACE type 2

group graphene type 1
8640 atoms in group graphene
group H2O type 2 3
12000 atoms in group H2O

thermo 1000

######### NVT production for 80 ps #############

dump DUMP1 all atom 100 nvt_prod_14.lammpstrj
timestep 0.001
fix NVT1 graphene nvt temp 300 300 0.1
Resetting global fix info from restart file:
  fix style: nvt, fix ID: NVT1
fix NVT2 H2O nvt temp 300 300 0.1
Resetting global fix info from restart file:
  fix style: nvt, fix ID: NVT2
run 80000
All restart file global fix info was re-assigned
Neighbor list info ...
  update: every = 1 steps, delay = 0 steps, check = yes
  max neighbors/atom: 2000, page size: 100000
  master list distance cutoff = 8
  ghost atom cutoff = 8
  binsize = 4, bins = 39 38 38
  1 neighbor lists, perpetual/occasional/extra = 1 0 0
  (1) pair symmetrix/mace, perpetual
      attributes: full, newton on
      pair build: full/bin
      stencil: full/bin/3d
      bin: standard
Per MPI rank memory allocation (min/avg/max) = 5.957 | 6.225 | 8.255 Mbytes
   Step          Temp          E_pair         E_mol          TotEng         Press     
   1120000   296.69011     -3218844.2      0             -3218052.7     -3.0755376    
   1121000   300.41677     -3218841.8      0             -3218040.4     -15.707665    
   1122000   298.04965     -3218855.2      0             -3218060.1     -30.212124    
   1123000   303.51526     -3218848.8      0             -3218039.1     -41.654846    
   1124000   297.73073     -3218846.8      0             -3218052.5     -59.38844     
   1125000   300.74468     -3218840        0             -3218037.6     -61.737027    
   1126000   300.07535     -3218840        0             -3218039.5     -85.401293    
   1127000   299.18955     -3218851.7      0             -3218053.5      2.7201851    
   1128000   303.12358     -3218842.2      0             -3218033.6     -30.048399    
   1129000   300.41431     -3218842.7      0             -3218041.3      6.4544183    
   1130000   300.34746     -3218843.6      0             -3218042.4     -31.542221    
   1131000   299.89826     -3218851.1      0             -3218051       -4.9615706    
   1132000   301.08468     -3218849.6      0             -3218046.4     -32.09492     
   1133000   298.5859      -3218853.4      0             -3218056.8     -25.086485    
   1134000   298.59938     -3218852.7      0             -3218056       -41.585069    
   1135000   299.51823     -3218853        0             -3218054       -48.893945    
   1136000   299.95149     -3218837.5      0             -3218037.3     -44.940229    
   1137000   301.56666     -3218850.4      0             -3218045.8     -46.636469    
   1138000   299.95361     -3218845.5      0             -3218045.2     -72.269363    
   1139000   301.43013     -3218849.1      0             -3218045       -39.437823    
   1140000   299.50648     -3218848.7      0             -3218049.7      13.138739    
   1141000   301.82986     -3218850.7      0             -3218045.4     -8.0016859    
   1142000   302.0113      -3218841.9      0             -3218036.2     -26.605667    
   1143000   299.94844     -3218855.8      0             -3218055.6     -11.933686    
   1144000   297.67254     -3218845.4      0             -3218051.3     -3.4717925    
   1145000   300.47723     -3218851.8      0             -3218050.2     -1.9024571    
   1146000   297.2088      -3218849.5      0             -3218056.6      2.3133473    
   1147000   301.0523      -3218852.5      0             -3218049.3     -1.692572     
   1148000   302.50488     -3218853.3      0             -3218046.2     -9.2694695    
   1149000   300.74134     -3218861.3      0             -3218059       -20.822044    
   1150000   300.72927     -3218853.9      0             -3218051.6     -30.868616    
   1151000   299.125       -3218847.9      0             -3218049.9     -46.923933    
   1152000   298.96488     -3218846.3      0             -3218048.7     -20.057437    
   1153000   301.10264     -3218858.8      0             -3218055.6     -59.271542    
   1154000   298.47531     -3218863.2      0             -3218066.9     -62.256738    
   1155000   299.15298     -3218847.6      0             -3218049.5     -57.057514    
   1156000   300.56616     -3218849.5      0             -3218047.6     -47.066437    
   1157000   298.63552     -3218858.7      0             -3218062       -22.078436    
   1158000   298.96045     -3218852.3      0             -3218054.7     -16.10668     
   1159000   299.55875     -3218852        0             -3218052.9     -25.58628     
   1160000   300.64358     -3218852.2      0             -3218050.2     -23.46161     
   1161000   298.54736     -3218844.4      0             -3218047.9     -70.809297    
   1162000   299.0702      -3218849.3      0             -3218051.4     -30.448009    
   1163000   299.84772     -3218852.6      0             -3218052.7     -14.511058    
   1164000   300.60076     -3218838.8      0             -3218036.8     -11.716846    
   1165000   297.64214     -3218851.3      0             -3218057.2      27.370498    
   1166000   303.128       -3218848        0             -3218039.3     -9.4467108    
   1167000   300.5922      -3218853.8      0             -3218051.9      18.416802    
   1168000   299.0949      -3218842.3      0             -3218044.4      23.82115     
   1169000   300.67153     -3218841.8      0             -3218039.7     -27.233706    
   1170000   301.28228     -3218844.5      0             -3218040.8      4.3865739    
   1171000   299.81445     -3218844.6      0             -3218044.8      8.8379886    
   1172000   300.07297     -3218835.1      0             -3218034.6     -2.301868     
   1173000   298.13777     -3218857        0             -3218061.6     -26.90816     
   1174000   300.90305     -3218847.2      0             -3218044.4      0.32623684   
   1175000   299.89761     -3218849.1      0             -3218049       -14.969814    
   1176000   301.32984     -3218854.8      0             -3218050.9     -29.843984    
   1177000   299.27316     -3218857        0             -3218058.6     -2.4854325    
   1178000   297.04836     -3218852.7      0             -3218060.2     -5.5961876    
   1179000   299.25194     -3218848.1      0             -3218049.8     -10.946594    
   1180000   301.43732     -3218844.5      0             -3218040.3     -28.28233     
   1181000   299.95771     -3218849.2      0             -3218049       -57.517765    
   1182000   298.90553     -3218844.8      0             -3218047.4     -56.532003    
   1183000   303.83736     -3218847.7      0             -3218037.2     -31.872664    
   1184000   299.80201     -3218853.6      0             -3218053.8     -16.626517    
   1185000   296.34566     -3218848.9      0             -3218058.3     -21.515905    
   1186000   301.08023     -3218851.9      0             -3218048.7     -20.649719    
   1187000   301.10242     -3218852        0             -3218048.7      0.12194542   
   1188000   300.96783     -3218847.4      0             -3218044.5     -60.65189     
   1189000   299.51973     -3218849.7      0             -3218050.7     -13.726795    
   1190000   299.27542     -3218842.4      0             -3218044       -0.51100131   
   1191000   300.16596     -3218848.4      0             -3218047.6     -54.367406    
   1192000   302.93097     -3218855.1      0             -3218046.9     -40.412948    
   1193000   300.03207     -3218850.1      0             -3218049.7     -27.717859    
   1194000   301.54839     -3218854        0             -3218049.6     -2.7128735    
   1195000   298.9795      -3218840.1      0             -3218042.5     -54.185595    
   1196000   301.31351     -3218855.9      0             -3218052.1      9.7133157    
   1197000   300.10919     -3218852.1      0             -3218051.4     -11.550447    
   1198000   298.91524     -3218852.2      0             -3218054.8     -28.914878    
   1199000   299.64974     -3218852.8      0             -3218053.4     -20.496324    
   1200000   299.8017      -3218853.4      0             -3218053.6     -35.825834    
Loop time of 47338 on 1664 procs for 80000 steps with 20640 atoms

Performance: 0.146 ns/day, 164.368 hours/ns, 1.690 timesteps/s, 34.881 katom-step/s
100.0% CPU use with 1664 MPI tasks x 1 OpenMP threads

MPI task timing breakdown:
Section |  min time  |  avg time  |  max time  |%varavg| %total
---------------------------------------------------------------
Pair    | 0.11918    | 6057.2     | 46190      |15568.8 | 12.80
Bond    | 0.0031593  | 0.0072288  | 0.033885   |   8.0 |  0.00
Neigh   | 0.015658   | 0.22442    | 5.016      | 152.5 |  0.00
Comm    | 0.57398    | 1851.1     | 18560      |9353.2 |  3.91
Output  | 0.55462    | 6.7162     | 13.542     | 145.3 |  0.01
Modify  | 207.93     | 39413      | 47321      |7659.1 | 83.26
Other   |            | 9.369      |            |       |  0.02

Nlocal:        12.4038 ave         225 max           0 min
Histogram: 1462 17 63 53 6 7 4 12 24 16
Nghost:        125.313 ave        2076 max           0 min
Histogram: 1333 173 40 37 32 13 7 9 15 5
Neighs:              0 ave           0 max           0 min
Histogram: 1664 0 0 0 0 0 0 0 0 0
FullNghs:      1842.93 ave       46029 max           0 min
Histogram: 1472 105 21 5 7 8 6 9 14 17

Total # of neighbors = 3066630
Ave neighs/atom = 148.57703
Ave special neighs/atom = 0
Neighbor list builds = 4214
Dangerous builds = 0

write_restart nvt_prod.restart.*
System init for write_restart ...
write_data nvt_prod_final.lammps-data
System init for write_data ...

Total wall time: 13:09:34
