LAMMPS data file via write_data, version 4 Feb 2025, timestep = 1200000, units = metal

20640 atoms
3 atom types

0 154.00799999999998 xlo xhi
0 148.2 ylo yhi
0 151.07609208607428 zlo zhi

Masses

1 12.01099999691024
2 1.007999999740698
3 15.99899999588435

Atoms # full

5988 0 1 0 3.378280445850636 4.64666216009033 57.32156179966179 1 0 0
5977 0 1 0 0.5352002430224858 4.54619701337532 57.13186055112947 1 0 0
5975 0 1 0 0.5536940449277323 2.1403750516511524 57.02415359276102 1 0 0
5976 0 1 0 1.3136815904625339 3.357246886385604 57.02769959986486 1 0 0
5987 0 1 0 2.7508209306804474 3.3874586126036235 57.18391748529102 1 0 0
5997 0 1 0 4.847232535639848 4.674571524626293 57.40962302270669 1 0 0
5986 0 1 0 3.434930176212255 2.175576808010104 57.15088221752981 1 0 0
5995 0 1 0 4.901878012300133 2.205717511865875 57.373497034083044 1 0 0
5974 0 1 0 1.3513738197767324 0.9242291761588117 57.09458644086819 1 0 0
5985 0 1 0 2.727407276578784 0.9263110818610139 57.12942780964976 1 0 0
5945 0 1 0 7.052995477295763 0.8839049873666148 57.65826339701699 1 0 0
5996 0 1 0 5.562671282968728 3.411429036866783 57.41145432371403 1 0 0
5994 0 1 0 5.614034033902811 0.9821289175207173 57.47447186483544 1 0 0
6666 0 1 0 7.718721480009457 2.1566487596272887 57.65546669800811 1 0 0
5947 0 1 0 7.010778385827051 3.4051825323901452 57.568836967634134 1 0 0
6675 0 1 0 9.113138687709906 2.128032388256862 57.7675655734425 1 0 0
5978 0 1 0 1.235807821233643 5.835864302181925 57.273577152791816 1 0 0
5980 0 1 0 1.2456304373325648 8.357326429101589 57.39080195244876 1 0 0
5979 0 1 0 0.5482092563431573 7.089490674350862 57.34486809993323 1 0 0
5981 0 1 0 2.685021811805037 8.359717312900449 57.38079745716572 1 0 0
5990 0 1 0 3.408911039213149 7.111113836238893 57.37478580575485 1 0 0
5989 0 1 0 2.656235723269186 5.862148734083448 57.35803664670771 1 0 0
5999 0 1 0 4.793545500434506 7.121041798322258 57.34957176316505 1 0 0
6668 0 1 0 7.6800701954218455 4.6893589885491656 57.60417555915039 1 0 0
6677 0 1 0 9.13972198239943 4.666910719846433 57.672755042169086 1 0 0
6679 0 1 0 9.12561090019445 7.160435659624687 57.7815766957135 1 0 0
5998 0 1 0 5.564941152443134 5.935469518509609 57.3756096340717 1 0 0
6000 0 1 0 5.485174429301306 8.411149342825528 57.44880012617172 1 0 0
5941 0 1 0 6.932699371018438 8.393779431398853 57.59582239889696 1 0 0
6670 0 1 0 7.711128398701383 7.120194029037302 57.66198318205417 1 0 0
5949 0 1 0 6.971442065237729 5.889521673954931 57.49937100947806 1 0 0
6053 0 1 0 4.835811216629631 12.055113224679197 57.388122447795645 1 0 0
6044 0 1 0 3.413994577379389 12.05329134031763 57.371706327214774 1 0 0
6043 0 1 0 2.680723897626334 10.835600236046147 57.33484349383139 1 0 0
6045 0 1 0 2.692524969265497 13.32695822141205 57.40807115305321 1 0 0
6032 0 1 0 1.238612371121047 10.85197293492288 57.22838230768715 1 0 0
6034 0 1 0 1.2222907385171997 13.313617853913378 57.43287959339296 1 0 0
6033 0 1 0 0.49284307486155515 12.047289236859175 57.357484313977565 1 0 0
6031 0 1 0 0.5046516579993006 9.577231614133217 57.34986930637377 1 0 0
6051 0 1 0 4.778186199704804 9.631535930483018 57.36301882578665 1 0 0
6042 0 1 0 3.3342611747631716 9.588270059209593 57.3918843922249 1 0 0
6052 0 1 0 5.509225165660116 10.862042344014599 57.38024665195873 1 0 0
6054 0 1 0 5.51299081469986 13.303627337633394 57.41485163591608 1 0 0
6005 0 1 0 6.97399102637069 13.322487150137684 57.456990383861594 1 0 0
6003 0 1 0 6.963310065987616 10.890871893473488 57.494698257630375 1 0 0
6722 0 1 0 7.649225843879409 9.601692159893577 57.60042111493196 1 0 0
6724 0 1 0 7.681681100825396 12.072515405266275 57.53873681387915 1 0 0
6733 0 1 0 9.133078477066148 12.088973982881724 57.62715296589503 1 0 0
6731 0 1 0 9.108144817622787 9.597005003035596 57.72740391802769 1 0 0
6055 0 1 0 4.805574270875756 14.528394748379148 57.50957693898703 1 0 0
6047 0 1 0 2.7153080100489944 15.771841891812182 57.86808809321475 1 0 0
6036 0 1 0 1.2680550401993755 15.741439071203054 57.7871131073922 1 0 0
6038 0 1 0 1.2593180797135684 18.22234021166326 57.8436339318213 1 0 0
6048 0 1 0 3.380245689916827 17.01024345064814 57.84380385036255 1 0 0
6049 0 1 0 2.6744200261644013 18.253876946602716 57.84872912415607 1 0 0
6037 0 1 0 0.5084247680934941 16.994186310251678 57.84149813934826 1 0 0
6035 0 1 0 0.5326821158818963 14.565890564765763 57.58481288135324 1 0 0
6046 0 1 0 3.4322499769839556 14.55827875686215 57.610783634184266 1 0 0
6057 0 1 0 4.7613669917858275 16.998934764527526 57.755637164950414 1 0 0
6009 0 1 0 6.89796866704574 18.2557048291445 57.81586832200845 1 0 0
6728 0 1 0 7.619008201394141 17.05075386397573 57.69403641270345 1 0 0
6056 0 1 0 5.482696448785366 15.795901545986407 57.6018638393409 1 0 0
6735 0 1 0 9.05718790637038 14.601596932712763 57.673258594269704 1 0 0
6058 0 1 0 5.478061691966578 18.253333501273556 57.74602626423859 1 0 0
6726 0 1 0 7.639303447779047 14.584399879686623 57.64288578585101 1 0 0
6007 0 1 0 6.884796876932002 15.82252446184256 57.61829268661204 1 0 0
6737 0 1 0 9.049072129495226 17.051104347809375 57.70458333511402 1 0 0
13839 0 2 0 6.487591684781637 18.19098000825113 55.3825119936334 3 -7 1
19853 0 3 0 2.598366248980578 1.3150498080645459 60.446500091523575 1 0 0
11542 0 2 0 3.0565043787764306 2.4780313598595503 62.2460112352148 1 0 0
18091 0 3 0 2.492112488686544 2.6593795810164433 62.97610993337959 1 0 0
11541 0 2 0 1.5723058341012264 2.4207953811616547 62.7874291044739 1 0 0
19279 0 3 0 0.5067548487440152 3.792905099613427 60.15013274222313 1 0 0
13918 0 2 0 1.0843370628588471 4.550443209265816 60.423336405196586 1 0 0
13917 0 2 0 0.10134825876318336 3.4289541340529555 60.95831059423184 1 0 0
16218 0 2 0 2.0261079707273564 13.660130678568558 69.5513323710667 1 0 0
16640 0 2 0 1.9281152363904004 4.761476178682493 63.47632305259181 1 0 0
19469 0 3 0 6.368625657044145 16.9645816817292 68.88988163322327 1 0 0
11701 0 2 0 5.090072086536753 1.4785020679054461 60.38199515320121 1 0 0
18171 0 3 0 5.825719390115416 1.900425271508557 60.93323003930669 1 0 0
11702 0 2 0 5.577462228135493 2.8931436909683628 60.89676037570372 1 0 0
14901 0 2 0 4.848648940509716 6.647509205945257 63.50836133599864 1 0 0
14687 0 2 0 7.638095856741098 1.3268089120635207 60.64249712720538 1 0 0
19664 0 3 0 8.506654392236987 0.9830478969207658 60.90136103739834 1 0 0
14688 0 2 0 8.530215684685876 0.17243979058097958 60.27694837579605 1 0 0
15529 0 2 0 0.5527438393755578 4.227355794408656 65.74385985044503 1 0 0
14180 0 2 0 9.127000815200057 0.9780498303050299 62.56375881409612 1 0 0
19771 0 3 0 5.014692741961813 5.710683159236625 63.58181534542425 1 0 0
20376 0 3 0 0.8552893172847054 4.19765348769644 68.39846587136692 1 0 0
14733 0 2 0 2.432598068921128 5.773628447185727 61.406905517948175 1 0 0
20640 0 3 0 1.7347583770658346 5.66862224650839 63.24124420078382 1 0 0
19687 0 3 0 2.159179438246019 6.13616416950951 60.482375133281685 1 0 0
13130 0 2 0 5.01311099485753 5.227552603696497 60.49032259416404 1 0 0
14734 0 2 0 1.7315135882369659 6.916214519380479 60.791499175446695 1 0 0
14904 0 2 0 3.644150379028844 8.487280116270002 65.14500631186745 1 0 0
16639 0 2 0 2.326072884315162 6.194993668268307 63.76244870307006 1 0 0
10353 0 2 0 5.157418308320522 8.240414276206417 59.93426113872314 1 0 0
14128 0 2 0 2.0546626482220254 10.195901200864748 62.905314864108114 1 0 0
19384 0 3 0 1.7580734539439653 10.339493584203229 61.98601503886433 1 0 0
10354 0 2 0 3.9511591177126193 7.502491503261099 60.50966340611891 1 0 0
17497 0 3 0 4.7904060712070216 7.835713517194705 60.75534788152095 1 0 0
19772 0 3 0 3.262515672005274 7.5685031530567 65.02535235028371 1 0 0
11494 0 2 0 0.28007233963077394 17.123475310616303 64.62911459530487 1 0 0
19728 0 3 0 7.711831306911214 7.630398449961877 63.61249677386599 1 0 0
18885 0 3 0 5.27010805987638 4.6485899081854765 61.224877112663485 1 0 0
13129 0 2 0 5.07235273900054 4.99095376657779 62.14516258389661 1 0 0
12989 0 2 0 7.242852833529072 5.4105172326361 61.500237486930416 1 0 0
12990 0 2 0 7.80991439331252 6.5178680941279605 62.4383866116791 1 0 0
18815 0 3 0 8.07674740218644 5.9733108574843685 61.610526682893195 1 0 0
14816 0 2 0 6.87413901645539 8.024907434932071 63.8868983812725 1 0 0
16602 0 2 0 5.207445810985775 8.579690731140301 62.22470909869697 1 0 0
20621 0 3 0 5.467130169898777 8.863368914571932 63.09183681999096 1 0 0
20495 0 3 0 7.42594720104923 9.231632245983178 61.118045219178725 1 0 0
15863 0 2 0 8.222862095929687 4.710057400332168 64.48083176938982 1 0 0
15065 0 2 0 1.8479415276030176 1.887558549609744 60.15662227372441 1 0 0
15465 0 2 0 2.9788762208538335 18.25634532396113 69.24498772807843 1 0 0
15172 0 2 0 1.276101381898891 8.086013352955728 68.72761848076868 1 0 0
15768 0 2 0 3.0142983921674595 11.863082289885865 61.21584636311344 1 0 0
20204 0 3 0 3.4789929547190255 12.70581239899899 61.08398671333023 1 0 0
15767 0 2 0 3.223505469090865 13.302366542161968 61.796477536093526 1 0 0
15383 0 2 0 0.38978144098658996 11.947366977642368 64.04818896384492 1 0 0
16227 0 2 0 3.9782873162858876 11.750889107080196 63.017012613696224 1 0 0
15701 0 2 0 2.473924035157108 14.752307637106608 60.322098459245225 1 0 0
14127 0 2 0 1.123206132346015 11.066041842837791 62.210248369128614 1 0 0
16601 0 2 0 4.933863977862496 9.622563089568528 63.366873265883015 1 0 0
20171 0 3 0 2.8522330614639 15.47363514039057 60.80819376266379 1 0 0
20434 0 3 0 4.0756923686505315 11.295931710792436 63.8501627352276 1 0 0
16228 0 2 0 4.9860865470769475 11.56338115599403 64.18126971887112 1 0 0
16349 0 2 0 7.0910627938666355 9.358222923686995 62.07884760888025 1 0 0
19709 0 3 0 7.001834764236344 13.010605275699234 61.397548648102465 1 0 0
14777 0 2 0 6.281589841972831 12.610566793215888 60.83042054576986 1 0 0
15749 0 2 0 8.237232470472227 12.55197267435224 62.88330868355574 1 0 0
20195 0 3 0 8.524333147955817 12.109500427521589 63.7013853061772 1 0 0
16350 0 2 0 7.5835388575588185 8.236049556460337 61.15731514304556 1 0 0
15750 0 2 0 9.443062559239925 11.946778200096688 63.69404648183502 1 0 0
10517 0 2 0 7.281012654870935 11.443313613068423 64.52099348976715 1 0 0
16111 0 2 0 0.20495081972669085 3.5344897464586813 68.12902413544555 1 0 0
18067 0 3 0 1.1451181107544683 16.77548082165215 64.33075544360001 1 0 0
13718 0 2 0 7.68253745383276 11.578303799660487 69.3696426877024 1 0 0
11619 0 2 0 0.9100733126712712 17.137570677915583 62.24918937017292 1 0 0
15778 0 2 0 5.013573648767438 15.30264350535257 61.183318733581324 1 0 0
15702 0 2 0 2.3843393748408293 16.323124196015744 60.68780018823535 1 0 0
18130 0 3 0 1.1173079273428859 17.50371218495339 61.357978077482706 1 0 0
13088 0 2 0 2.401701478391305 14.633573366911053 63.02838368259077 1 0 0
13087 0 2 0 3.5688001019653166 14.157640907021529 63.77932434030045 1 0 0
18864 0 3 0 2.7463920625994827 13.829477073396188 63.468149221406 1 0 0
14778 0 2 0 6.631312507060344 13.881825562992173 61.55934338914946 1 0 0
14766 0 2 0 5.737594449738156 14.976270477648432 63.126198155225126 1 0 0
15777 0 2 0 5.99020615043533 16.35926146899675 61.670699265880714 1 0 0
20209 0 3 0 5.94250698337349 15.428739897815703 61.45892112234766 1 0 0
19410 0 3 0 9.507957824989438 0.7391851542014146 63.45752397847136 1 0 0
20110 0 3 0 0.03702212677381086 8.227673287829502 60.97181346713449 1 0 0
18941 0 3 0 8.960229922361705 18.039418845802704 60.857637425408925 1 0 0
15667 0 2 0 9.07756714666175 14.958304210390612 63.174367403700536 1 0 0
18429 0 3 0 6.218713255160083 18.233459304446203 61.4342829586485 1 0 0
20445 0 3 0 1.2601109842347966 9.470971656609661 67.23625377698315 1 0 0
15683 0 2 0 8.976397225787938 16.166850862791243 68.14019048440218 1 0 0
11348 0 2 0 0.682931470227918 11.943980775776526 68.84762936618044 1 0 0
8823 0 2 0 2.825765133056716 1.2206128536599872 64.35570103382771 1 0 0
16154 0 2 0 4.769317047962375 1.0978907702076857 63.970894532668076 1 0 0
16732 0 3 0 3.0393357373176686 0.24811308702469168 64.51320294037772 1 0 0
8824 0 2 0 3.1563790976668877 0.05953845178885169 65.52325682894825 1 0 0
15961 0 2 0 3.8831341587151895 18.522925019060064 65.0739914128858 1 0 0
11139 0 2 0 3.9045014756914744 3.9391614841970797 66.12506765576723 1 0 0
17890 0 3 0 3.6180068850583473 4.710496147882539 65.49394882288239 1 0 0
20170 0 3 0 9.4829534870959 4.242930580808904 63.349526140219325 1 0 0
13241 0 2 0 8.66416330211857 17.56505606418491 60.1195600912808 1 0 0
15058 0 2 0 0.16064380923082286 13.623235026577868 60.2702761287906 1 0 0
16112 0 2 0 0.2771977877525684 4.987659714427457 68.62357048089103 1 0 0
19932 0 3 0 9.068682609771122 17.963173583269175 67.31725266922837 1 0 0
15580 0 2 0 0.523204449797731 8.980647839326688 61.49554170892719 1 0 0
14902 0 2 0 4.462340137569799 5.196420775804176 64.27849003839094 1 0 0
16153 0 2 0 5.712079746716471 1.6787437889831949 62.80990529151688 1 0 0
20397 0 3 0 5.630004930471343 1.4645109831261884 63.78075618452881 1 0 0
20122 0 3 0 9.117351289126509 1.211427368487725 66.45789140125045 1 0 0
19681 0 3 0 4.1285020219491315 2.5608130448663835 67.21774959909273 1 0 0
14722 0 2 0 4.234620273883397 2.5678599950613012 68.2289781154122 1 0 0
14721 0 2 0 5.113179579489165 2.6144345911084317 66.92629785216522 1 0 0
10156 0 2 0 6.302799568024256 1.8499315120263136 65.23339119361458 1 0 0
17398 0 3 0 6.573562226589358 2.284614886582324 66.0953094675589 1 0 0
10155 0 2 0 6.813677135574713 3.2190891035466125 65.90862851227408 1 0 0
15864 0 2 0 6.786289779789019 5.297555226159477 64.35066837025207 1 0 0
13326 0 2 0 9.462389051667724 6.591283695844581 69.67438224247506 1 0 0
15235 0 2 0 5.781614341003684 9.36611895105307 69.12288497955336 1 0 0
11620 0 2 0 0.2898903358101682 17.864354184086462 61.03265553622813 1 0 0
20162 0 3 0 8.84506340428248 15.190742992390916 68.21303242689952 1 0 0
20254 0 3 0 3.362735844398789 4.89119569057183 69.6891539812514 1 0 0
15066 0 2 0 2.1123843109816374 0.5395844967584804 60.774692008319995 1 0 0
15604 0 2 0 9.203857812999507 0.939663214024437 65.46517107934251 1 0 0
15700 0 2 0 9.257089742886038 4.936747539011504 62.65095554043097 1 0 0
19491 0 3 0 4.399471523122579 6.399890104172329 67.43688775747285 1 0 0
14342 0 2 0 5.383277701286357 6.51207425372174 67.25209572628242 1 0 0
11140 0 2 0 3.786035686644599 5.419813527666087 66.19843459821706 1 0 0
14341 0 2 0 4.414518248279351 5.951113207228316 68.29643922557676 1 0 0
15868 0 2 0 2.6840626161937733 4.593201950275854 69.05193032058976 1 0 0
14903 0 2 0 3.111898506790065 7.466028451428712 65.94354414832064 1 0 0
18672 0 3 0 5.353749359764012 17.542387379273126 65.28398581933125 1 0 0
16396 0 2 0 2.966186909493797 9.92632033494569 67.23916845306876 1 0 0
16584 0 2 0 3.773937665383632 0.700510614722978 67.39350423643945 1 0 0
20252 0 3 0 7.348057392094795 4.927681087433699 65.03572196230058 1 0 0
15684 0 2 0 8.392329342524048 14.828691979221666 67.39742224023783 1 0 0
13568 0 2 0 7.418508859274295 6.100584426939608 66.20756295569505 1 0 0
13567 0 2 0 7.88104875386966 6.708992263764497 67.61978022027141 1 0 0
19104 0 3 0 7.21122417558258 6.805401511090538 66.89957386634565 1 0 0
16249 0 2 0 0.9856858012602249 8.677557204920694 66.68929149671239 1 0 0
13792 0 2 0 8.517510267910598 3.2517341592499287 69.63099408179242 1 0 0
13411 0 2 0 7.032641331182061 8.446440054052145 66.72939219949845 1 0 0
13412 0 2 0 5.628019569817384 9.32839914792856 66.96378237603146 1 0 0
19026 0 3 0 6.6141504194114455 9.401470374599377 66.98356862566565 1 0 0
18983 0 3 0 9.202345562818532 6.127108013123276 68.87348809521558 1 0 0
15603 0 2 0 8.156313294283061 1.4197477032089856 66.50496963293689 1 0 0
19906 0 3 0 1.349218343275992 7.380997823118897 69.38468109757673 1 0 0
20518 0 3 0 3.9433497647697355 10.076507296057962 67.2097107768073 1 0 0
16271 0 2 0 0.6122834264740025 7.021055759980755 64.8854424084631 1 0 0
16395 0 2 0 4.142066246492957 11.024469207308547 67.06794588103782 1 0 0
16250 0 2 0 0.47525757893000176 10.003944457511976 67.37207393737327 1 0 0
12062 0 2 0 1.820201536130561 11.120921888723975 66.03682144305041 1 0 0
18351 0 3 0 1.8548040507600279 11.988388096388494 65.44906699651766 1 0 0
12061 0 2 0 2.705453291160963 11.901580254778807 64.88983055483988 1 0 0
9783 0 2 0 3.7937102277185772 14.316980230147825 68.25473970535334 1 0 0
14242 0 2 0 8.74490514881119 14.16422288968727 61.23761202519181 1 0 0
15886 0 2 0 7.793563852333169 13.156764882935567 65.90866958650793 1 0 0
13717 0 2 0 7.313243042326787 10.783632977323451 68.02664532598263 1 0 0
17579 0 3 0 6.436617413728166 11.420150027412364 65.00458447013825 1 0 0
20263 0 3 0 7.816182765810833 14.144461232973086 65.95853437426906 1 0 0
19183 0 3 0 5.126683565653799 12.858788514888229 67.53424529356893 1 0 0
13726 0 2 0 5.309247198625956 13.070247456829449 66.62228076444282 1 0 0
10518 0 2 0 6.448452023286214 10.709788967810546 65.61759838619501 1 0 0
19179 0 3 0 7.41870706874366 11.643233383129745 68.42599540353183 1 0 0
13725 0 2 0 5.992382180323109 12.459409173014294 67.92669999362678 1 0 0
15549 0 2 0 9.091522324281645 11.460603479559136 67.5261490959521 1 0 0
20297 0 3 0 0.08201187876846959 17.95598923339656 68.19494010435092 1 0 0
15704 0 2 0 1.7460787102319846 13.932655380314886 65.68443871439115 1 0 0
11493 0 2 0 1.717627640996369 17.419734970241443 64.74550259743451 1 0 0
15885 0 2 0 7.044836517469054 14.30741741144607 65.31667476113415 1 0 0
14765 0 2 0 5.411674402353954 15.846115450918779 64.2867426688394 1 0 0
20053 0 3 0 2.8664525893449806 17.993005466676134 68.27276859461392 1 0 0
15954 0 2 0 1.0880210929624317 17.759110311960264 68.18125289713021 1 0 0
16146 0 2 0 6.927001382771884 18.318340379717274 69.23658330637586 1 0 0
20456 0 3 0 0.293439588976888 7.380100085303608 65.7778730946027 1 0 0
17212 0 3 0 2.951236731434058 14.77412901086268 68.50841408250805 1 0 0
9784 0 2 0 2.497383846255322 14.826494091083674 67.64906717226962 1 0 0
20172 0 3 0 1.3782443720557893 14.629763000300285 66.25289462263218 1 0 0
15466 0 2 0 3.073648515983375 17.083759562257896 68.1701348768401 1 0 0
15703 0 2 0 1.2142923598913524 15.271745896337068 65.56290751247921 1 0 0
12704 0 2 0 5.3728247202964905 17.460147641259166 66.3015335978338 1 0 0
15668 0 2 0 8.696631080877617 15.028679404383121 64.62655434212702 1 0 0
15407 0 2 0 8.454726996542943 17.7543825482467 65.75445606006951 1 0 0
12703 0 2 0 6.3273790862805965 17.74808838191055 65.07937494385367 1 0 0
14815 0 2 0 8.511212265913372 8.197564703456827 63.82277093134893 1 0 0
14297 0 2 0 7.12659417238666 16.343182380256952 68.85586510675415 1 0 0
19703 0 3 0 5.622249944971754 14.928569548687733 64.08898902619117 1 0 0
15408 0 2 0 8.32511721430879 17.17913964157709 64.25990188132226 1 0 0
20024 0 3 0 8.116733961464174 17.931343245174507 64.86563214327761 1 0 0
9897 0 2 0 9.343714080057524 10.308641250801895 60.88574040180923 1 0 0
20154 0 3 0 9.221519606659653 15.518282696426727 63.95617585342581 1 0 0
14298 0 2 0 5.731699180355521 16.532973941897918 69.52879210543418 1 0 0
16237 0 2 0 2.3556209588800874 14.885893580185574 80.79399495735602 1 0 0
15420 0 2 0 4.397380055481997 0.015828504333756512 70.54806561244392 1 0 0
19216 0 3 0 7.53214576502004 3.380749393836086 69.7887004144719 1 0 0
19929 0 3 0 4.7901667248075706 15.785731908199422 78.374918515937 1 0 0
15217 0 2 0 4.914075894791911 16.805018712742672 78.1929146593618 1 0 0
19548 0 3 0 0.01693603816926589 15.274406778812637 75.748580280981 1 0 0
20035 0 3 0 2.784499465070493 4.029130708933264 73.56004864788109 1 0 0
15429 0 2 0 1.969294883210612 4.486627662714728 73.10807110635857 1 0 0
15430 0 2 0 3.207074703000217 3.3728799816483073 72.9753814165286 1 0 0
20302 0 3 0 0.595277107070131 15.833620942894912 71.85813245381163 1 0 0
14388 0 2 0 0.6288265890832783 2.227114251985985 74.00804213964831 1 0 0
17608 0 3 0 3.8658602357680794 1.7445858323775774 72.26473873041442 1 0 0
10576 0 2 0 4.071331314569339 2.139959886399234 71.37624989918234 1 0 0
10575 0 2 0 4.783398892290048 1.6872251616202865 72.5666417478768 1 0 0
14526 0 2 0 6.893725499647715 2.717003381329955 72.15418401613522 1 0 0
19583 0 3 0 6.805417283319503 1.9275515564354249 72.71720168251362 1 0 0
14525 0 2 0 7.057828319718035 1.2195522563124992 72.06417882188353 1 0 0
10902 0 2 0 0.43542163807782974 8.347331519768588 74.94147758521451 1 0 0
16238 0 2 0 2.2894076678574837 13.825063761770023 79.70766517803695 1 0 0
11202 0 2 0 2.3472914793643365 5.8961234333472525 75.13869680239078 1 0 0
14633 0 2 0 0.2348141387052397 13.385256610049446 75.8894955276074 1 0 0
15648 0 2 0 5.939962360153527 7.2894133287318965 69.75535743193 1 0 0
20144 0 3 0 5.668607856258657 6.342199674875041 69.90088804981443 1 0 0
15647 0 2 0 5.334832028885591 6.363185816611417 70.82289355601996 1 0 0
15171 0 2 0 1.8796360008458386 7.834704607413393 70.11553964917488 1 0 0
16167 0 2 0 8.074669174091033 17.60157663724847 76.59455167141441 1 0 0
15963 0 2 0 0.5233695043285688 14.883295030259735 72.16419607687408 1 0 0
12665 0 2 0 4.468437468252122 5.385228888478403 73.10144452058876 1 0 0
18024 0 3 0 3.2070267194642685 8.047901661027897 71.59977725972745 1 0 0
9645 0 2 0 1.5825430929093733 17.304709770314297 75.73432915738167 1 0 0
15112 0 2 0 9.48658677448595 16.306897190960914 73.09917893652099 1 0 0
11201 0 2 0 3.7831938705673505 5.942724950219064 75.4902503109502 1 0 0
11407 0 2 0 3.765803337526527 7.497411493828293 72.18989144257154 1 0 0
20126 0 3 0 8.414364348223659 5.796749676425625 73.20825107596892 1 0 0
15611 0 2 0 8.860379229627753 5.009147960403841 73.61670314094556 1 0 0
15612 0 2 0 8.954939811721648 6.058489121641477 72.44865861673559 1 0 0
18653 0 3 0 5.228564256840817 5.9399680506577255 72.9226342000927 1 0 0
12666 0 2 0 6.081884217779093 5.485346252283463 72.96419613704045 1 0 0
15563 0 2 0 9.148259736814197 8.239607609429985 71.39651180021377 1 0 0
14746 0 2 0 6.2502594579858854 7.784927497197037 74.19547973830191 1 0 0
18189 0 3 0 7.540921905603724 9.368318939008374 71.56972051872495 1 0 0
11737 0 2 0 7.187454555284105 9.246039984967945 72.50167142320285 1 0 0
15867 0 2 0 3.135583517302061 5.826222433081822 70.03104473665312 1 0 0
14868 0 2 0 4.65135409959618 3.648870082409172 69.98840055610596 1 0 0
19938 0 3 0 5.323761476361384 9.205734516378348 69.99127931788237 1 0 0
16207 0 2 0 1.3582046601098017 15.93111378307293 78.58387661251125 1 0 0
12837 0 2 0 3.986422152200882 10.57847397286548 70.35763178329509 1 0 0
18739 0 3 0 3.629514630683618 11.232482634634216 70.92437019804923 1 0 0
12838 0 2 0 2.9049398985111368 11.598154070641364 70.4004737667583 1 0 0
14738 0 2 0 4.740331670536358 12.720260586013444 71.57707746722365 1 0 0
20429 0 3 0 1.6859151182010932 12.760656447104662 69.84488762375847 1 0 0
11408 0 2 0 3.9152893263274455 8.561085364210541 71.02212808197422 1 0 0
16318 0 2 0 2.7905553892104593 10.719751656043828 72.48912352381596 1 0 0
20424 0 3 0 0.6022516959034324 16.52606413192504 78.25666868746049 1 0 0
15545 0 2 0 0.44159069855910754 8.519655634318239 72.65786862676214 1 0 0
15236 0 2 0 6.0710245755235235 9.344491997175838 70.64788473979094 1 0 0
19689 0 3 0 5.459463628030686 13.328183270817654 71.78641512748108 1 0 0
19693 0 3 0 6.470143977436679 8.729344475106426 74.00129469366719 1 0 0
10186 0 2 0 5.605280728427762 12.50723343971034 74.98795256479326 1 0 0
10185 0 2 0 5.485108858834094 13.995878805880151 75.06927781627114 1 0 0
17413 0 3 0 6.078853296692572 13.304851704160855 74.71966207010672 1 0 0
14737 0 2 0 5.591838866374936 13.387285551640268 72.73951379665432 1 0 0
14745 0 2 0 5.897985652369947 9.259024512238831 74.5716093434852 1 0 0
11738 0 2 0 7.8587798468397185 10.332102976898302 71.5763847077389 1 0 0
16199 0 2 0 8.472391406457184 12.849613764071696 70.9419932580181 1 0 0
20420 0 3 0 7.7805616307798795 12.171874843431905 70.95571139933544 1 0 0
16200 0 2 0 6.961300465931934 12.696569501939802 71.18545523441135 1 0 0
19637 0 3 0 0.2925614902760215 12.433942274291558 76.07001807003515 1 0 0
18528 0 3 0 0.10157926912959778 12.86250695705083 72.69849309352614 1 0 0
16217 0 2 0 1.166136298044942 12.902700550704415 70.62488651528663 1 0 0
9646 0 2 0 2.673738279927858 17.523080364001224 74.72429264818744 1 0 0
17143 0 3 0 2.532544877668163 17.50798399414403 75.74209488837346 1 0 0
16278 0 2 0 3.3207925099398934 17.822159071563064 72.48874245911854 1 0 0
16277 0 2 0 2.097548810498326 16.795682189398747 72.56571558060061 1 0 0
20459 0 3 0 2.87740376455471 17.125365098286245 73.06415208407257 1 0 0
15120 0 2 0 7.805649514885584 13.687995942544466 76.16132710956501 1 0 0
13949 0 2 0 3.1887815878041703 15.741208578752593 75.68231438760021 1 0 0
14313 0 2 0 4.299569301633453 16.36008474162549 71.1977100684437 1 0 0
19295 0 3 0 3.8599428922868 15.017004883544532 75.80315137460796 1 0 0
12416 0 2 0 0.7623917392312581 12.343521458230875 73.19556355282756 1 0 0
19876 0 3 0 8.786838570028559 16.160454974152355 72.42549191143297 1 0 0
19586 0 3 0 0.10520515775690759 5.202192017435435 73.24794635172314 1 0 0
19880 0 3 0 8.580889988326975 13.947658444654829 76.72145716120335 1 0 0
15111 0 2 0 8.038811151103062 16.585350309102484 72.8217899780431 1 0 0
15828 0 2 0 5.6690576631463125 17.06048458251828 74.41241782852515 1 0 0
20234 0 3 0 6.067393671342552 17.291115227037647 73.58818922613246 1 0 0
19477 0 3 0 5.226279404922131 16.116943230407124 71.12196099222997 1 0 0
14314 0 2 0 5.267141599331447 15.146114263763403 71.1749644650684 1 0 0
15827 0 2 0 5.6277025313310665 16.7601927863412 72.8589703007347 1 0 0
11520 0 2 0 9.238077304224225 18.01530079210138 71.54358738271779 1 0 0
10901 0 2 0 1.8812512989742756 8.376599895775515 75.08288964429237 1 0 0
15302 0 2 0 5.061053505011195 12.676522210783514 79.12114689510685 1 0 0
17771 0 3 0 1.194139562374892 8.832862143910294 74.58663000955436 1 0 0
17921 0 3 0 2.979995164504825 6.437019470236044 75.71706698752493 1 0 0
15301 0 2 0 5.190598974758046 13.962848335468026 78.2235945523131 1 0 0
14455 0 2 0 0.05815755620497498 15.837382785226376 76.54115552126072 1 0 0
20404 0 3 0 7.348303537323106 18.297452913801717 76.51912044889141 1 0 0
16317 0 2 0 2.008869711755199 10.354810461969626 73.83120314802804 1 0 0
20479 0 3 0 2.305166609876037 11.083428092249719 73.27206349021688 1 0 0
20439 0 3 0 2.613201965650594 14.799019364145694 79.86728564320933 1 0 0
14634 0 2 0 1.1294678179141973 12.019391807255879 75.67979079658221 1 0 0
12614 0 2 0 4.2456122289603915 10.75021312842932 74.06414051812624 1 0 0
18627 0 3 0 4.761747156190641 10.780335483894428 74.87339272986155 1 0 0
12613 0 2 0 4.053784535591757 11.04617285598904 75.53801992839416 1 0 0
10251 0 2 0 3.851192363051347 12.56889013983655 77.2572662744091 1 0 0
17446 0 3 0 3.1804136919653123 12.363795450578523 76.4994600840475 1 0 0
16079 0 2 0 1.6375345038146443 12.493531858481607 78.29765722276045 1 0 0
16080 0 2 0 1.1811510193439605 11.584836266582553 79.52260396622577 1 0 0
20360 0 3 0 1.494908192118559 12.513515083144686 79.26158170492653 1 0 0
15218 0 2 0 3.9940096026808645 15.636549440665535 78.99758252629375 1 0 0
19971 0 3 0 5.284798238932255 13.015140086336087 78.2478035287886 1 0 0
10252 0 2 0 3.164450437606452 13.206357321679302 76.00589848108345 1 0 0
16208 0 2 0 0.9787980947645258 17.439194464396444 78.29071844701818 1 0 0
15119 0 2 0 8.173927002771185 14.313350131546484 77.55543500806252 1 0 0
13950 0 2 0 4.321310947068138 15.183755274594779 76.626794704909 1 0 0
11874 0 2 0 9.43920310748636 15.590394539944302 76.48387910680532 1 0 0
19754 0 3 0 4.850482873059252 2.6883500725705014 69.85076825679803 1 0 0
14867 0 2 0 5.844887594107813 2.5204194863744296 69.80435380005554 1 0 0
14273 0 2 0 0.03479409939319597 6.572954120767091 70.40955720338276 1 0 0
18782 0 3 0 0.12131554486761008 10.211799829298508 80.08151052126885 1 0 0
18257 0 3 0 9.525031488281172 16.480502697700782 76.02877612737365 1 0 0
13140 0 2 0 6.2373406361017 18.486315822604375 77.75993941107622 1 0 0
13791 0 2 0 7.498640954312509 4.360591574499121 69.92082689836816 1 0 0
15324 0 2 0 2.4092866672491473 16.20790314517888 82.91340403011935 1 0 0
15323 0 2 0 1.0843815377632327 16.380486272546722 82.2193529927024 1 0 0
19982 0 3 0 2.0605811380789443 16.423873695608464 82.06016146221714 1 0 0
6059 0 1 0 4.7654571153925245 19.47627775281171 57.76178042290019 1 0 0
6111 0 1 0 4.809234257607331 21.963001712586745 57.70015774716375 1 0 0
6050 0 1 0 3.33559781131047 19.479500266812586 57.78666129986869 1 0 0
6102 0 1 0 3.385336912664903 21.972615958501443 57.67250659543421 1 0 0
6041 0 1 0 2.6452461508640552 20.77046228629125 57.77008098152984 1 0 0
6103 0 1 0 2.6059018552844657 23.19573886359598 57.720743839127344 1 0 0
6040 0 1 0 1.2204805743465135 20.73200283261051 57.85281460288969 1 0 0
6092 0 1 0 1.1610226503285808 23.19022090099776 57.682067442086975 1 0 0
6039 0 1 0 0.5309137446430957 19.465288375594795 57.89596930745443 1 0 0
6091 0 1 0 0.4469291856049185 21.908678794267217 57.740521073800295 1 0 0
6060 0 1 0 5.480639229835815 20.65756913017972 57.82603422109498 1 0 0
6163 0 1 0 2.614604230288569 35.527086718531685 58.06205783958302 1 0 0
6110 0 1 0 3.3535801504179292 31.81736013374428 57.87940654231005 1 0 0
6739 0 1 0 9.06637255612281 19.517126409565368 57.84835817739279 1 0 0
13840 0 2 0 6.480542865720241 18.551898989864487 53.889402978805705 3 -7 1
6114 0 1 0 5.5217484035770905 25.653800492960723 57.97380609985083 1 0 0
6151 0 1 0 0.49568408579377266 34.301765778510806 57.94437736094768 1 0 0
6173 0 1 0 4.816727830699486 36.730304407429415 58.07812922517523 1 0 0
6782 0 1 0 7.565087789145288 21.926261340786407 57.869909709895396 1 0 0
6094 0 1 0 1.1982631462371955 25.647758424880767 57.68375076858824 1 0 0
6106 0 1 0 3.3164847642423507 26.816923171753782 57.797465108044115 1 0 0
6001 0 1 0 6.863909031423825 20.700493143243108 57.874307911603 1 0 0
6153 0 1 0 0.4417079528478416 36.74199285596226 58.013553015214185 1 0 0
6104 0 1 0 3.3441243664622835 24.38939070253003 57.75267781605262 1 0 0
6105 0 1 0 2.635207223046734 25.6012370389358 57.78748138646263 1 0 0
6093 0 1 0 0.42618181838466174 24.445378846247237 57.62560164487061 1 0 0