LAMMPS (4 Feb 2025)
OMP_NUM_THREADS environment is not set. Defaulting to 1 thread. (src/comm.cpp:99)
  using 1 OpenMP thread(s) per MPI task
# LAMMPS script for running NVT simulation

units       metal
dimension   3
boundary    p p p
atom_style  full
atom_modify map yes

newton      on

read_data   ../start.lammps-data
Reading data file ...
  orthogonal box = (0 0 0) to (153.54598 147.74968 151.07317)
  16 by 8 by 8 MPI processor grid
  reading atoms ...
  11640 atoms
  reading velocities ...
  11640 velocities
Finding 1-2 1-3 1-4 neighbors ...
  special bond factors lj:    0        0        0       
  special bond factors coul:  0        0        0       
     0 = max # of 1-2 neighbors
     0 = max # of 1-3 neighbors
     0 = max # of 1-4 neighbors
     1 = max # of special neighbors
  special bonds CPU = 5.974 seconds
  read_data CPU = 6.154 seconds

pair_style  symmetrix/mace
pair_coeff  * * ../../../00-common/models/ch2o-dens-inv_swa-1-6-8.json C H O
Loading MACE model from '../../../00-common/models/ch2o-dens-inv_swa-1-6-8.json' ... success
  mapping LAMMPS type 1 (C) to MACE type 1
  mapping LAMMPS type 2 (H) to MACE type 0
  mapping LAMMPS type 3 (O) to MACE type 2

variable t equal step

group graphene type 1
8640 atoms in group graphene
group H2O type 2 3
3000 atoms in group H2O

thermo 1000

######### NVT equilibration for 80 ps #############

dump DUMP1 all atom 100 nvt_equi.lammpstrj
timestep 0.001
fix NVT1 graphene nvt temp 300 300 0.1
fix NVT2 H2O nvt temp 300 300 0.1
run 80000
Neighbor list info ...
  update: every = 1 steps, delay = 0 steps, check = yes
  max neighbors/atom: 2000, page size: 100000
  master list distance cutoff = 8
  ghost atom cutoff = 8
  binsize = 4, bins = 39 37 38
  1 neighbor lists, perpetual/occasional/extra = 1 0 0
  (1) pair symmetrix/mace, perpetual
      attributes: full, newton on
      pair build: full/bin
      stencil: full/bin/3d
      bin: standard
Per MPI rank memory allocation (min/avg/max) = 5.921 | 6.239 | 8.666 Mbytes
   Step          Temp          E_pair         E_mol          TotEng         Press     
         0   78.173347     -1810205.1      0             -1810087.5      836.34556    
      1000   87.681859     -1810200.5      0             -1810068.6      577.21211    
      2000   200.0036      -1810072.7      0             -1809771.8     -732.66994    
      3000   307.72252     -1809969.7      0             -1809506.8     -822.20247    
      4000   301.45593     -1809941.9      0             -1809488.4     -1005.9615    
      5000   303.39339     -1809943.4      0             -1809487       -811.59039    
      6000   297.07847     -1809943.7      0             -1809496.8     -696.84624    
      7000   298.34468     -1809928        0             -1809479.2     -796.77226    
      8000   299.10051     -1809918.4      0             -1809468.4     -665.55093    
      9000   297.39555     -1809928.3      0             -1809480.9     -667.19541    
     10000   305.7522      -1809916.4      0             -1809456.4     -603.91917    
     11000   296.03482     -1809924.4      0             -1809479       -548.11986    
     12000   305.55204     -1809938.8      0             -1809479.1     -382.81562    
     13000   305.48758     -1809916.6      0             -1809457       -405.48543    
     14000   301.36013     -1809919.7      0             -1809466.4     -366.37562    
     15000   300.2719      -1809916        0             -1809464.2     -310.41657    
     16000   300.20996     -1809917        0             -1809465.4     -166.70511    
     17000   298.78681     -1809909.9      0             -1809460.4     -424.15209    
     18000   297.59561     -1809924.6      0             -1809476.9     -225.17245    
     19000   305.25075     -1809912.4      0             -1809453.2     -137.20016    
     20000   300.61752     -1809916.5      0             -1809464.2     -165.15867    
     21000   301.59833     -1809920.9      0             -1809467.1     -26.580401    
     22000   301.38467     -1809911.8      0             -1809458.4     -48.007293    
     23000   302.23668     -1809909.1      0             -1809454.4     -154.71672    
     24000   298.47851     -1809917.9      0             -1809468.8     -42.861998    
     25000   297.75772     -1809916.5      0             -1809468.5     -0.093690449  
     26000   303.73406     -1809909.5      0             -1809452.6      1.5343484    
     27000   297.34719     -1809916.2      0             -1809468.9     -6.8497513    
     28000   296.68423     -1809916.4      0             -1809470.1      5.7515887    
     29000   299.93967     -1809912.1      0             -1809460.9     -29.227388    
     30000   299.71713     -1809917.8      0             -1809466.9      2.9376445    
     31000   299.52452     -1809919.8      0             -1809469.1      105.58133    
     32000   302.51559     -1809913.8      0             -1809458.7      71.813905    
     33000   296.92288     -1809922.7      0             -1809476        90.647841    
     34000   298.18974     -1809916.9      0             -1809468.3      52.864352    
     35000   299.87502     -1809917.2      0             -1809466       -2.7369236    
     36000   301.79472     -1809922.3      0             -1809468.3      97.590147    
     37000   302.09726     -1809919.9      0             -1809465.4      140.45862    
     38000   298.52882     -1809921.7      0             -1809472.6      108.40445    
     39000   299.76113     -1809918.1      0             -1809467.1      121.57096    
     40000   299.75696     -1809915.6      0             -1809464.6      74.958239    
     41000   297.63128     -1809920.5      0             -1809472.7      130.15051    
     42000   296.99197     -1809919.7      0             -1809472.9      166.96213    
     43000   302.27356     -1809917.2      0             -1809462.4      159.57836    
     44000   300.24554     -1809921.8      0             -1809470.1      157.77048    
     45000   301.1515      -1809925.9      0             -1809472.8      167.36001    
     46000   302.49269     -1809919.4      0             -1809464.4      89.689688    
     47000   303.51342     -1809917.2      0             -1809460.5      105.47304    
     48000   301.64982     -1809927        0             -1809473.2      93.179917    
     49000   300.54359     -1809924.2      0             -1809472.1      62.30034     
     50000   301.55723     -1809924.7      0             -1809471        42.663351    
     51000   300.62639     -1809920.1      0             -1809467.8      71.369186    
     52000   295.15002     -1809923.7      0             -1809479.6      36.075473    
     53000   301.3005      -1809919.2      0             -1809465.9      97.477463    
     54000   301.98671     -1809922.8      0             -1809468.4      155.7203     
     55000   301.04842     -1809923.4      0             -1809470.5      144.17752    
     56000   303.91329     -1809925        0             -1809467.8      167.51379    
     57000   297.53309     -1809924.8      0             -1809477.2      166.62243    
     58000   298.6036      -1809920.7      0             -1809471.5      135.10882    
     59000   297.83694     -1809921.7      0             -1809473.6      60.823444    
     60000   301.24939     -1809921.4      0             -1809468.2      44.547622    
     61000   302.48522     -1809922.3      0             -1809467.2      84.410065    
     62000   299.18566     -1809927        0             -1809476.9      86.324259    
     63000   300.83271     -1809917.2      0             -1809464.6      41.769548    
     64000   300.06372     -1809917.9      0             -1809466.5      115.01826    
     65000   297.46061     -1809920.4      0             -1809472.9      147.276      
     66000   296.61165     -1809928.7      0             -1809482.4      112.63657    
     67000   302.69479     -1809919.5      0             -1809464.1      57.692715    
     68000   298.64992     -1809925.3      0             -1809476        77.344593    
     69000   299.92724     -1809925.5      0             -1809474.3      120.4224     
     70000   302.51631     -1809922.1      0             -1809466.9      87.401775    
     71000   301.45024     -1809925.9      0             -1809472.4      62.918203    
     72000   295.65345     -1809918.9      0             -1809474.1      62.562753    
     73000   300.67517     -1809924.6      0             -1809472.2      44.008496    
     74000   300.04086     -1809925        0             -1809473.6      87.552065    
     75000   297.44213     -1809921.4      0             -1809473.9      104.61647    
     76000   299.39838     -1809921.8      0             -1809471.4      107.26338    
     77000   296.59421     -1809924.5      0             -1809478.3      43.971715    
     78000   300.5184      -1809921.5      0             -1809469.4      50.6173      
     79000   302.39472     -1809923.9      0             -1809469        82.110564    
     80000   299.02254     -1809928.8      0             -1809478.9      102.07935    
Loop time of 60033.7 on 1024 procs for 80000 steps with 11640 atoms

Performance: 0.115 ns/day, 208.450 hours/ns, 1.333 timesteps/s, 15.511 katom-step/s
100.0% CPU use with 1024 MPI tasks x 1 OpenMP threads

MPI task timing breakdown:
Section |  min time  |  avg time  |  max time  |%varavg| %total
---------------------------------------------------------------
Pair    | 1353.1     | 5682.7     | 24369      |6406.1 |  9.47
Bond    | 0.0048333  | 0.011438   | 0.068729   |   7.9 |  0.00
Neigh   | 0.10368    | 0.32967    | 1.9939     |  44.4 |  0.00
Comm    | 31.558     | 2120.9     | 7243.7     |3608.0 |  3.53
Output  | 8.477      | 12.452     | 17.292     |  74.2 |  0.02
Modify  | 31842      | 52206      | 58596      |2630.7 | 86.96
Other   |            | 11.77      |            |       |  0.02

Nlocal:        11.3672 ave         327 max           0 min
Histogram: 882 37 91 3 2 1 0 4 2 2
Nghost:        99.3594 ave        1705 max           0 min
Histogram: 757 202 34 8 10 7 3 1 0 2
Neighs:              0 ave           0 max           0 min
Histogram: 1024 0 0 0 0 0 0 0 0 0
FullNghs:      1214.16 ave       67117 max           0 min
Histogram: 999 12 3 1 1 1 3 1 1 2

Total # of neighbors = 1243304
Ave neighs/atom = 106.81306
Ave special neighs/atom = 0
Neighbor list builds = 3781
Dangerous builds = 0

write_restart nvt_equi.restart.*
System init for write_restart ...
write_data nvt_equi_final.lammps-data
System init for write_data ...

Total wall time: 16:41:00
