LAMMPS data file via write_data, version 4 Feb 2025, timestep = 80000, units = metal

11640 atoms
3 atom types

0 153.54597599999997 xlo xhi
0 147.74968429430638 ylo yhi
0 151.07316997686289 zlo zhi

Masses

1 12.01099999691024
2 1.007999999740698
3 15.99899999588435

Atoms # full

4620 0 1 0 0.7286527297436604 12.01719522019485 18.252194504238506 1 0 1
4604 0 1 0 0.7335134221767949 2.27356391590321 17.140811900143532 1 0 1
4844 0 1 0 5.015433903030146 2.1959317073194757 17.277950701567082 1 0 1
4843 0 1 0 3.591641977651599 2.2605688962981176 17.24638938648693 1 0 1
4838 0 1 0 2.880889712275994 0.990825787309821 17.002458222701232 1 0 1
4842 0 1 0 2.833414923814714 3.475834222162851 17.365079870025813 1 0 1
4837 0 1 0 1.4962261147786982 1.0661205283183965 17.031763839016325 1 0 1
4841 0 1 0 1.4082381776317885 3.470790681606506 17.350268956593535 1 0 1
5081 0 1 0 5.72767152575669 3.438458704891512 17.541416677446694 1 0 1
5077 0 1 0 5.768790315645913 1.0129532526702116 17.060651820415433 1 0 1
5078 0 1 0 7.135566140249525 1.033826844593265 17.124958142112057 1 0 1
5082 0 1 0 7.160163353803026 3.4443391214831043 17.632911901914373 1 0 1
4624 0 1 0 0.7283032445193219 14.467451670573643 18.516725107147792 1 0 1
5083 0 1 0 7.854629692224534 2.263467715012006 17.437010114776214 1 0 1
5096 0 1 0 9.28141759434315 9.616159028857021 18.37544597310136 1 0 1
4612 0 1 0 0.802170806521097 7.200548066720718 17.472912310229386 1 0 1
5084 0 1 0 9.30191511550103 2.2696179687736646 17.49067529651747 1 0 1
4608 0 1 0 0.7104313068826428 4.7034346695519895 17.390904643438347 1 0 1
4848 0 1 0 5.010032748657114 4.674498137010489 17.651371547142947 1 0 1
4852 0 1 0 4.997675405068107 7.1230980862530515 17.906868519238124 1 0 1
4847 0 1 0 3.5912284646588155 4.667219757824587 17.564872003452084 1 0 1
4851 0 1 0 3.6075692216083093 7.124317501722469 17.785703611484013 1 0 1
4846 0 1 0 2.89706424432088 5.888719324884928 17.647293570467486 1 0 1
4850 0 1 0 2.88135668645982 8.383210720642104 17.831670034958158 1 0 1
4849 0 1 0 1.5175150992520148 8.430939419238989 17.729747302461025 1 0 1
4845 0 1 0 1.4733676636566717 5.924776527447838 17.483515992940944 1 0 1
5085 0 1 0 5.672937356485234 5.93244006441975 17.788603346201167 1 0 1
5089 0 1 0 5.754062678826751 8.33572988401275 18.067868235456928 1 0 1
5086 0 1 0 7.134049718214158 5.881988515705541 17.980868133087327 1 0 1
5090 0 1 0 7.158364980933474 8.360616865943669 18.169270575377567 1 0 1
5091 0 1 0 7.833729523453046 7.124117817507858 18.134235353835127 1 0 1
5087 0 1 0 7.867881955059289 4.666178160573264 17.86141960851911 1 0 1
5092 0 1 0 9.239505142559127 7.101792985596618 18.166812835826658 1 0 1
5088 0 1 0 9.281137710408595 4.693966915192989 17.916033804714196 1 0 1
4616 0 1 0 0.746571837849401 9.610148746140895 17.835669630223162 1 0 1
5097 0 1 0 5.697515448837609 13.199264618847469 18.795465849648853 1 0 1
5100 0 1 0 9.283698667538568 12.035331357712401 18.769857043116893 1 0 1
4858 0 1 0 2.872050643411264 13.206965662914465 18.628564097221595 1 0 1
5093 0 1 0 5.724999968432222 10.836642971367931 18.37537607171521 1 0 1
4860 0 1 0 4.965083237730442 11.99840189908095 18.583110962753032 1 0 1
4856 0 1 0 5.009089591218836 9.608110429848175 18.14301607588064 1 0 1
4855 0 1 0 3.609724764862218 9.610793868668669 18.073613938664213 1 0 1
4859 0 1 0 3.5649991334173396 11.994954430916984 18.528712789140226 1 0 1
4854 0 1 0 2.8856663936840836 10.795936455718035 18.24976284112273 1 0 1
4853 0 1 0 1.4329578790243085 10.792143124836963 18.131679930118374 1 0 1
4857 0 1 0 1.438211801564673 13.250904649538416 18.46487900686652 1 0 1
5099 0 1 0 7.831975139299214 12.00757307934549 18.634665946013317 1 0 1
5094 0 1 0 7.126817895649178 10.781981252476493 18.499564579870302 1 0 1
5095 0 1 0 7.839282659880894 9.581149783930524 18.306730693488063 1 0 1
5098 0 1 0 7.0873766653514165 13.204834718451709 18.79672168035903 1 0 1
4861 0 1 0 1.4169572052531714 15.657789873692197 18.882547019943278 1 0 1
5104 0 1 0 9.210951642000643 14.502349990562308 19.04622454620842 1 0 1
5106 0 1 0 7.062068563463026 18.093747120063913 19.888583930135262 1 0 1
5108 0 1 0 9.183486397192135 16.929242318657625 19.526602640455266 1 0 1
5107 0 1 0 7.7825121321612345 16.88080891032663 19.649012572672074 1 0 1
5102 0 1 0 7.095607168657102 15.658519687031774 19.353038941639205 1 0 1
5105 0 1 0 5.5866199020855785 18.101685649476817 19.877992721000698 1 0 1
4868 0 1 0 4.966307961676109 16.823783604588122 19.660249302872337 1 0 1
5103 0 1 0 7.792211916265313 14.42158751688874 19.079851205167916 1 0 1
4866 0 1 0 2.833613166748782 18.138052860870268 19.54857823657984 1 0 1
5101 0 1 0 5.707565371553907 15.626718374025627 19.32513520184502 1 0 1
4862 0 1 0 2.846280987979645 15.62614780540344 19.187728932587817 1 0 1
4867 0 1 0 3.545370679912249 16.82817547475517 19.494936270726747 1 0 1
4865 0 1 0 1.3814123430062197 18.14197610350632 19.431980188529558 1 0 1
4628 0 1 0 0.6718927676646017 16.902330048943508 19.073408708554062 1 0 1
4864 0 1 0 5.00499271284754 14.416000828286164 18.985903659880723 1 0 1
4863 0 1 0 3.575146836284313 14.444643340700434 18.958532550390068 1 0 1
4869 0 1 0 1.35064701155256 20.593216721909368 19.87015265863763 1 0 1
4640 0 1 0 0.5806568530903293 24.26238675313846 20.122607756065715 1 0 1
4632 0 1 0 0.6422285876432049 19.37304601868473 19.643621989197353 1 0 1
5124 0 1 0 9.10619856498224 26.691818679743218 20.766445013025052 1 0 1
5132 0 1 0 9.16103353566511 31.630400887920658 21.099109652136143 1 0 1
4875 0 1 0 3.442776925036894 21.79038555413015 20.251503067393855 1 0 1
5136 0 1 0 9.130756672237137 34.10357682803957 21.26071986527798 1 0 1
5140 0 1 0 9.066748846224675 36.55781264905473 21.300435935229025 1 0 1
4873 0 1 0 1.3286813739326016 23.056959718988892 20.056924791586905 1 0 1
5135 0 1 0 7.71335234389059 34.13402240983112 21.113118965446418 1 0 1
4870 0 1 0 2.7387211070069744 20.5935292843352 19.93002686466981 1 0 1
5116 0 1 0 9.13931196967226 21.691951700927586 20.341902729759607 1 0 1
5139 0 1 0 7.66299344704636 36.58597422450842 21.269939949413406 1 0 1
5115 0 1 0 7.715920887020443 21.744450156677807 20.340713811565823 1 0 1
5128 0 1 0 9.153123652696296 29.190461567155797 20.90547466020341 1 0 1
5119 0 1 0 7.657007168352372 24.195978716667 20.509953136449735 1 0 1
5120 0 1 0 9.078295532059585 24.196953000407945 20.436077658009488 1 0 1
5133 0 1 0 5.555423974026871 35.34488446330855 21.095372135490607 1 0 1
5134 0 1 0 6.964561679606831 35.35561890649219 21.191511000026683 1 0 1
4900 0 1 0 4.815391637875221 36.56102032207317 21.15489431668406 1 0 1
4895 0 1 0 3.4278786614280095 34.12598151994373 20.803582688837842 1 0 1
4881 0 1 0 1.2185937817457493 27.953537540281044 20.521613874331717 1 0 1
5123 0 1 0 7.677158227668917 26.72204782369273 20.823203220364185 1 0 1
4636 0 1 0 0.6001038204437679 21.795163891030885 19.916146075845656 1 0 1
5118 0 1 0 6.960078820655756 25.51092585137994 20.660463940213575 1 0 1
5131 0 1 0 7.738630985615495 31.64227023940902 21.026505548663913 1 0 1
4890 0 1 0 2.69760869723978 32.88992346717809 20.66971766438563 1 0 1
4894 0 1 0 2.6604452643549434 35.3485975038801 20.729160667625074 1 0 1
5129 0 1 0 5.548887491663188 32.87521379867006 20.917263155965777 1 0 1
4891 0 1 0 3.3792042998265854 31.64488189015783 20.849230340593902 1 0 1
4899 0 1 0 3.352980998332534 36.54876329206085 20.978422722753717 1 0 1
4896 0 1 0 4.851050998319197 34.13143103900822 20.848373121715284 1 0 1
5130 0 1 0 7.021224756644817 32.86214452071888 20.954827959224406 1 0 1
4893 0 1 0 1.2395564341203273 35.30653858109101 20.50998499157127 1 0 1
4892 0 1 0 4.85814155467097 31.63239649885925 20.945052986544685 1 0 1
4886 0 1 0 2.6735676750625896 30.418332751882676 20.70188862928182 1 0 1
4885 0 1 0 1.2701662634579896 30.41896202319919 20.43248938408502 1 0 1
5112 0 1 0 9.172935597585356 19.283423220967475 20.044854396595067 1 0 1
4652 0 1 0 0.5704983728628544 31.711244008981623 20.407524582236174 1 0 1
4884 0 1 0 4.796200505422637 26.70842333706927 20.850436160754274 1 0 1
4889 0 1 0 1.2783652790945335 32.91801066673593 20.46789435747702 1 0 1
5117 0 1 0 5.526829476961314 25.476750366299914 20.70881110735705 1 0 1
5126 0 1 0 6.981159098914733 30.43757577262724 20.981623803662266 1 0 1
5125 0 1 0 5.567909953706427 30.42070209001327 21.013464766651484 1 0 1
4887 0 1 0 3.369754162237681 29.170984177624007 20.78058077160609 1 0 1
4888 0 1 0 4.792837094174645 29.194157744804002 20.974548973479095 1 0 1
4660 0 1 0 0.5306154070141835 36.55967351543592 20.580304614201623 1 0 1
4656 0 1 0 0.5065990427066877 34.12163672686201 20.382183792835633 1 0 1
5121 0 1 0 5.501722379792572 27.949784496001545 20.912031486035577 1 0 1
5127 0 1 0 7.674606848198766 29.183050627043475 20.984182735975303 1 0 1
5122 0 1 0 6.9194904874428325 28.012415044052407 20.919532062681203 1 0 1
4648 0 1 0 0.5786804392293466 29.213806112354835 20.367474356794066 1 0 1
4883 0 1 0 3.3550083204890986 26.702272835961377 20.67635204166417 1 0 1
4882 0 1 0 2.6235507838582657 27.95237353291806 20.692750526243763 1 0 1
5111 0 1 0 7.767236766321797 19.2689123808201 20.123059194169024 1 0 1
5114 0 1 0 6.97618118349614 22.983723235280834 20.438997918939393 1 0 1
5113 0 1 0 5.514133931312202 22.964261821411732 20.50436101216229 1 0 1
4880 0 1 0 4.823406876201248 24.23720968824122 20.648527962024996 1 0 1
4878 0 1 0 2.65905138919037 25.500973343286812 20.516222853245125 1 0 1
5110 0 1 0 7.011874835127611 20.48615740031126 20.268255417318006 1 0 1
4876 0 1 0 4.858997063341461 21.71079712794023 20.344613179569397 1 0 1
5109 0 1 0 5.6072601564873565 20.507564696670517 20.20919425447711 1 0 1
4877 0 1 0 1.2560056168549658 25.48933632270696 20.348396295694727 1 0 1
4879 0 1 0 3.391527857148496 24.247310182777806 20.596905086775706 1 0 1
4644 0 1 0 0.5181013295352157 26.713583690586272 20.375085511762197 1 0 1
4872 0 1 0 4.904989138992821 19.300976113657978 19.99952567161498 1 0 1
4871 0 1 0 3.5132347383200373 19.341123102953247 19.802612910453643 1 0 1
4874 0 1 0 2.7250019161896075 22.9973253881009 20.338369013154047 1 0 1
4664 0 1 0 0.5543986426313787 38.99942011727974 20.88040295958786 1 0 1
4676 0 1 0 0.5102409724120405 46.429833767971104 20.525998728320968 1 0 1
5160 0 1 0 8.991162453736958 48.918590500547545 21.5356218248021 1 0 1
4927 0 1 0 3.3186504040063016 53.84068634905943 20.81816131638778 1 0 1
4923 0 1 0 3.300835336565694 51.3529094917132 20.71114292520225 1 0 1
4668 0 1 0 0.5163892279532741 41.48518452075065 21.036882821469714 1 0 1
5168 0 1 0 8.932231569658427 53.86090126005513 21.740673485520578 1 0 1
5164 0 1 0 8.936865343541774 51.39336439340639 21.60122735694347 1 0 1
5166 0 1 0 6.828187308152144 55.06800134737517 21.477475945722023 1 0 1
4901 0 1 0 1.2438539930001973 40.21241008107908 21.011124386381237 1 0 1
5167 0 1 0 7.508302634547493 53.841811514805926 21.59363306490398 1 0 1
5163 0 1 0 7.546225949726166 51.36469142653159 21.482024704947715 1 0 1
5162 0 1 0 6.813482377209528 52.553307239142974 21.37714217469779 1 0 1
5159 0 1 0 7.556698581386676 48.90779144412693 21.300678163151034 1 0 1
4926 0 1 0 2.5842191473638394 55.064016557457904 20.88360529577087 1 0 1
4922 0 1 0 2.5909811314454574 52.57548270648104 20.717587312339614 1 0 1
5165 0 1 0 5.392510031850787 55.102196063049966 21.378218435578834 1 0 1
4924 0 1 0 4.71812920678492 51.357552975683426 20.998375274662674 1 0 1
5161 0 1 0 5.428942806341027 52.62424695940632 21.20291263595576 1 0 1
4928 0 1 0 4.7359487559082005 53.84529534426115 21.086905066365706 1 0 1
4925 0 1 0 1.143941374994485 55.154040520257006 20.661393015147258 1 0 1
4672 0 1 0 0.48623129629420925 43.9787662942934 20.81055275342277 1 0 1
5158 0 1 0 6.795523193442501 50.13653758273549 21.347778427706935 1 0 1
5156 0 1 0 8.991055291491184 46.41888042354388 21.48229262644692 1 0 1
5155 0 1 0 7.531339309259094 46.4035812957224 21.334206595277653 1 0 1
4916 0 1 0 4.760282130619792 46.4026683288312 21.03990355138817 1 0 1
5154 0 1 0 6.903168647654479 47.671843903849386 21.165642119808226 1 0 1
4920 0 1 0 4.704590024554749 48.871159410555435 21.03797728461209 1 0 1
5157 0 1 0 5.40103635359606 50.14423010364268 21.10595823299862 1 0 1
4912 0 1 0 4.741765197732184 43.938018719329726 21.036120005929384 1 0 1
4919 0 1 0 3.2942712554085114 48.872333435398346 20.797847496276766 1 0 1
5153 0 1 0 5.447968428516312 47.68640071395703 21.094084424747212 1 0 1
4914 0 1 0 2.6326924105004705 47.6414251907335 20.727691839162002 1 0 1
5149 0 1 0 5.445751447284639 45.15332817597957 21.067977400309392 1 0 1
4915 0 1 0 3.3149850119619604 46.43237796768404 20.848521455144986 1 0 1
5150 0 1 0 6.886103195247819 45.17501681166648 21.26799127545348 1 0 1
4918 0 1 0 2.578441177569061 50.1528906997695 20.6682279691272 1 0 1
4684 0 1 0 0.43964291626649304 51.41093312969169 20.503301512697856 1 0 1
5152 0 1 0 9.035056781030175 43.96858476852703 21.526706438164435 1 0 1
5151 0 1 0 7.620414573676901 43.936250417604455 21.37611800743173 1 0 1
4688 0 1 0 0.4372823478899969 53.869661135084435 20.49942380871446 1 0 1
4910 0 1 0 2.6091229910557483 45.244053331347786 20.714452248643184 1 0 1
4921 0 1 0 1.1376493202924045 52.62237633600238 20.53085497970856 1 0 1
4680 0 1 0 0.4992426009409759 48.886204523379384 20.508720012245934 1 0 1
5148 0 1 0 9.048769541131339 41.50443490670698 21.60027300811863 1 0 1
4917 0 1 0 1.181783787768535 50.170321737150374 20.510985973586163 1 0 1
4913 0 1 0 1.2476574164388408 47.66539534418665 20.526060153054758 1 0 1
5146 0 1 0 6.928301930479206 42.70448311224746 21.305905170822985 1 0 1
5147 0 1 0 7.633124367968811 41.50393786506333 21.490117862321075 1 0 1
5144 0 1 0 9.054602058823189 39.023544822229155 21.443538831988608 1 0 1
5145 0 1 0 5.463208537440267 42.73013562737979 21.279244162826092 1 0 1
5138 0 1 0 6.906794776120985 37.822094637273004 21.381390006659217 1 0 1
5142 0 1 0 6.928444117488485 40.26337702567398 21.558586774932433 1 0 1
5143 0 1 0 7.615902982716262 39.0478168281083 21.552033241956295 1 0 1
5141 0 1 0 5.530312467704483 40.24850959536673 21.39189067067692 1 0 1
4908 0 1 0 4.786321538205338 41.50123112234764 21.24019089837288 1 0 1
5137 0 1 0 5.51652265917413 37.79995655557547 21.37032290902714 1 0 1
4904 0 1 0 4.80727816032434 39.05608137263563 21.313091227020713 1 0 1
4911 0 1 0 3.314300917970153 43.98400817490148 20.838982181816153 1 0 1
4903 0 1 0 3.3707351796111342 39.037937956117155 21.251029132022175 1 0 1
4906 0 1 0 2.6277302942738014 42.75755431852457 20.93322349239671 1 0 1
4902 0 1 0 2.685167104826181 40.28395902147144 21.129129102118135 1 0 1
4907 0 1 0 3.353750989045263 41.52652178374992 21.07404816899152 1 0 1
4909 0 1 0 1.164098677942191 45.22566752321461 20.65899846540215 1 0 1
4905 0 1 0 1.1990050451781022 42.76562065536329 20.884680403313748 1 0 1
4898 0 1 0 2.6727219650859024 37.80179188445722 21.010515526048337 1 0 1
4897 0 1 0 1.2824963516713763 37.79645576939493 20.80469609326516 1 0 1
5169 0 1 0 5.436631540073526 57.54572395789889 21.284888987177872 1 0 1
4932 0 1 0 4.653938547375651 56.33140842523189 21.29311485410404 1 0 1
4700 0 1 0 0.41383083471441345 61.32575523318454 21.00958921949114 1 0 1
5172 0 1 0 8.95426204373286 56.32839594976196 21.72025580254473 1 0 1
5176 0 1 0 8.877288583917736 58.85335612657865 21.797851853352668 1 0 1
5171 0 1 0 7.539717671799202 56.32895874067421 21.52040902571611 1 0 1
5175 0 1 0 7.512908045186176 58.893723042718904 21.560646924653962 1 0 1
5170 0 1 0 6.876764296773948 57.62750854454021 21.355576907677097 1 0 1
5173 0 1 0 5.414972598100398 60.09882069665572 21.32234108161243 1 0 1
4704 0 1 0 0.3926675437679329 63.755392689186586 21.07213383902995 1 0 1
4692 0 1 0 0.4428187213430918 56.36494837734787 20.6990179354462 1 0 1
5180 0 1 0 8.947878063997804 61.28123148464672 21.714397746967315 1 0 1
5184 0 1 0 8.909755091332299 63.7829771634367 21.73059995098458 1 0 1
5174 0 1 0 6.839162887159634 60.13517025788782 21.421864560107153 1 0 1
5179 0 1 0 7.53001262053158 61.32151740643551 21.51142364898565 1 0 1
5178 0 1 0 6.865655692982858 62.5437269709802 21.500014355178074 1 0 1
5183 0 1 0 7.503601391926724 63.85327210937592 21.565101747982823 1 0 1
5188 0 1 0 8.865627747684453 66.30087487286434 21.88794363463174 1 0 1
4712 0 1 0 0.365367559949295 68.71039496644923 21.208251003197752 1 0 1
4716 0 1 0 0.29779173886864035 71.19401862288976 21.05113606960114 1 0 1
5192 0 1 0 8.834899562078537 68.75164865939828 21.90795614603748 1 0 1
4696 0 1 0 0.3951961666304929 58.83778041097669 20.85627165224495 1 0 1
5196 0 1 0 8.871557166779995 71.21876936291918 21.95152186596339 1 0 1
5429 0 1 0 9.581237614975509 69.93926897674872 22.090594115160286 1 0 1
4931 0 1 0 3.2577596811336833 56.316841087933405 21.109265180162073 1 0 1
4935 0 1 0 3.2965405758805555 58.84152351977386 21.119457416464726 1 0 1
4936 0 1 0 4.732795744727128 58.81072033720425 21.19302926538359 1 0 1
4930 0 1 0 2.570815849878747 57.601059720230694 21.04002007112254 1 0 1
4934 0 1 0 2.5286084749213935 60.072919672164396 21.15489909164215 1 0 1
4940 0 1 0 4.690417371404992 61.32768095699174 21.31688565239349 1 0 1
5182 0 1 0 6.745666833052384 65.04363627899382 21.670686920124297 1 0 1
5191 0 1 0 7.397061917231026 68.72343603421089 21.796567676344775 1 0 1
5200 0 1 0 8.923849957381721 73.64993602913864 21.81874626240964 1 0 1
5195 0 1 0 7.444444735312014 71.22766087926277 21.85006954875412 1 0 1
5199 0 1 0 7.511804804349413 73.67014729459012 21.6548848812689 1 0 1
4929 0 1 0 1.14606856881308 57.580352147024534 20.870000507092247 1 0 1
5177 0 1 0 5.38981463980618 62.5493646443174 21.41454216625793 1 0 1
4939 0 1 0 3.251575533002458 61.31180488779267 21.186072976519416 1 0 1
5187 0 1 0 7.423749133292644 66.30391614637523 21.800142164696723 1 0 1
5186 0 1 0 6.72449500309597 67.48654526757186 21.818273456375206 1 0 1
5190 0 1 0 6.720365716221456 69.97941401126708 21.721502425733636 1 0 1
4933 0 1 0 1.115109322080375 60.100130047436004 21.063065960054956 1 0 1
4944 0 1 0 4.6308401674056014 63.76799105946641 21.50609603603248 1 0 1
5194 0 1 0 6.76877938457199 72.43421556562868 21.708008116620658 1 0 1
5181 0 1 0 5.313910462717214 65.01994570824804 21.613311863507064 1 0 1
4938 0 1 0 2.5084570267506705 62.572095825394555 21.17252109178629 1 0 1
4948 0 1 0 4.562645674806589 66.27667241398004 21.68294361563885 1 0 1
4937 0 1 0 1.1302241690910806 62.53642767059915 21.06604578451681 1 0 1
4943 0 1 0 3.211947562406476 63.784023827044805 21.301898893633435 1 0 1
4942 0 1 0 2.4998570042086925 64.99115374401616 21.41021208712495 1 0 1
5193 0 1 0 5.334473250276417 72.39008708915793 21.466847029169077 1 0 1
5185 0 1 0 5.274929490651171 67.49794562139935 21.70367403173994 1 0 1
4960 0 1 0 4.63712922535041 73.65606917148072 21.303740084284428 1 0 1
5189 0 1 0 5.303568666136451 69.98624306503656 21.663792850093547 1 0 1
4941 0 1 0 1.0568955873331152 65.00220784691346 21.198231451739467 1 0 1
4945 0 1 0 1.0522852270874723 67.49663249486187 21.288086096943154 1 0 1
4947 0 1 0 3.132736179996048 66.22217287913847 21.522981689546622 1 0 1
4956 0 1 0 4.572270138399456 71.18616239114108 21.55294016875367 1 0 1
4951 0 1 0 3.178494951666209 68.71213201026488 21.445240119119237 1 0 1
4946 0 1 0 2.4435518521935733 67.46954475278172 21.438950320693923 1 0 1
4952 0 1 0 4.569668536223441 68.73170927286205 21.550440228284742 1 0 1
4955 0 1 0 3.208005687024434 71.13266647737642 21.332295390030154 1 0 1
4950 0 1 0 2.4627729565625054 69.92292149633914 21.255451470307523 1 0 1
4959 0 1 0 3.213598097605843 73.6566143759904 21.1744917392695 1 0 1
4954 0 1 0 2.4712794226818664 72.37765540248682 21.19260935118561 1 0 1
4953 0 1 0 1.0746055015366953 72.39893584606703 21.067586073535615 1 0 1
4949 0 1 0 1.026859733630363 69.9617203434607 21.24402072349918 1 0 1
4708 0 1 0 0.3118501394442734 66.20811480596295 21.24883459846391 1 0 1
4720 0 1 0 0.3752208865957636 73.62681323286273 20.73830259898761 1 0 1
5433 0 1 0 9.59514672680684 72.38028383668578 21.96968623064971 1 0 1
5204 0 1 0 8.927836283030002 76.04135031251587 21.41699799451132 1 0 1
5226 0 1 0 6.91132690479018 92.11194251696524 20.4041022288574 1 0 1
4987 0 1 0 3.308040453600619 90.96258483239872 20.082860821480907 1 0 1
5220 0 1 0 9.012201268952872 85.96058033531466 20.42817895820308 1 0 1
5214 0 1 0 6.880938801911474 84.70442754744707 20.118318651541568 1 0 1
4976 0 1 0 4.7308588301794625 83.46846883752904 20.001306367057353 1 0 1
5203 0 1 0 7.494408491358259 76.05794126716823 21.317471915013726 1 0 1
5208 0 1 0 8.92566581429479 78.51225421645971 21.01781502107223 1 0 1
4986 0 1 0 2.5450906393576838 92.21003308830048 20.128447753881236 1 0 1
5212 0 1 0 9.022989280641799 80.98717528830284 20.59225328900324 1 0 1
4985 0 1 0 1.122027237944117 92.16153653586636 19.951320108965085 1 0 1
5211 0 1 0 7.543660419836156 80.98231202018489 20.507020675376037 1 0 1
5206 0 1 0 6.774625922999531 79.77675794073994 20.67264358747275 1 0 1
5210 0 1 0 6.859928461266799 82.22991073811706 20.210714566809603 1 0 1
5207 0 1 0 7.46761531219986 78.53763465800067 20.93305517921677 1 0 1
4748 0 1 0 0.44106426293023276 90.90228940057364 19.83099134035936 1 0 1
5216 0 1 0 9.038843257063293 83.48062160401501 20.358622038568623 1 0 1
4744 0 1 0 0.43217993498054363 88.47592180112485 19.790433516643198 1 0 1
5215 0 1 0 7.6025719967834835 83.47162282407774 20.23075548523989 1 0 1
5202 0 1 0 6.791741517948545 77.29165213878969 21.07253577051921 1 0 1
5209 0 1 0 5.417139906003079 82.20316551927507 20.146704535156356 1 0 1
4736 0 1 0 0.445375369148489 83.50227771154722 20.045046070456056 1 0 1
5219 0 1 0 7.6174488844637915 85.9716319785116 20.236442720674333 1 0 1
5201 0 1 0 5.343057943743214 77.28440221215445 20.983906525547432 1 0 1
5224 0 1 0 8.985684308257689 88.43526898590737 20.364756480046612 1 0 1
5205 0 1 0 5.349926374262382 79.7353838324694 20.612658595467348 1 0 1
4972 0 1 0 4.657554313735572 80.9729449071847 20.382831450217367 1 0 1
4968 0 1 0 4.62217058070561 78.50093000304092 20.747077283778545 1 0 1
5213 0 1 0 5.410915694646567 84.68449102185464 20.031040037442366 1 0 1
4970 0 1 0 2.5539847415381605 82.21219685533737 20.078831862137676 1 0 1
5198 0 1 0 6.77801002184206 74.87076723164773 21.339735906854152 1 0 1
5218 0 1 0 6.910582941508022 87.19860457079298 20.211228597804958 1 0 1
5197 0 1 0 5.352339987135788 74.83899264731244 21.354313032780503 1 0 1
5223 0 1 0 7.575325353881393 88.43999626728807 20.245784701215538 1 0 1
5228 0 1 0 9.028293266986218 90.91980415058043 20.424291251813553 1 0 1
4967 0 1 0 3.1808834047434154 78.51966164952772 20.604607177095428 1 0 1
5227 0 1 0 7.61464267891241 90.86165006198271 20.343009861035593 1 0 1
5217 0 1 0 5.481230866105332 87.23015049416844 20.099397672963438 1 0 1
5222 0 1 0 6.865942370095698 89.66618635538413 20.240114515518005 1 0 1
4981 0 1 0 1.1760125899777043 89.68299337197634 19.86726878502124 1 0 1
4980 0 1 0 4.714101209966003 85.97641908010381 20.00249460510329 1 0 1
4964 0 1 0 4.677414470074378 76.03727937973672 21.102964983857987 1 0 1
4965 0 1 0 1.0730771608709355 79.71988497429204 20.378178204346884 1 0 1
4975 0 1 0 3.335046458442818 83.4710878585035 19.97143145615117 1 0 1
4979 0 1 0 3.3442884557159633 85.96028033123015 19.90228445011579 1 0 1
4974 0 1 0 2.6490697468742557 84.70074771647221 19.927134058136833 1 0 1
4966 0 1 0 2.504006256796472 79.76413951595798 20.394180086100064 1 0 1
4971 0 1 0 3.264419360632369 80.97027687843394 20.204111666960888 1 0 1
4973 0 1 0 1.2127185755070065 84.71218537073068 19.960741724288482 1 0 1
4984 0 1 0 4.755646824458186 88.43999552067908 20.11916466778989 1 0 1
4969 0 1 0 1.1103819983808527 82.22259202707947 20.094070529139536 1 0 1
5221 0 1 0 5.433968785644488 89.68064638736328 20.158322674164296 1 0 1
4978 0 1 0 2.60284219931703 87.26743826758701 19.897692291700526 1 0 1
4963 0 1 0 3.245768110664312 76.07431805755576 20.96230069455943 1 0 1
4983 0 1 0 3.3111158027133563 88.46375898342254 20.03803338792996 1 0 1
4962 0 1 0 2.4783404649242096 77.29234212629106 20.83372321280767 1 0 1
4958 0 1 0 2.510879382712076 74.84517554713489 21.01429346134184 1 0 1
4977 0 1 0 1.1993692958891915 87.2563935924293 19.87631917682451 1 0 1
4961 0 1 0 1.0919818938960826 77.27251733162579 20.75190912796143 1 0 1
5225 0 1 0 5.461767144060168 92.15328621488455 20.299277613144803 1 0 1
4724 0 1 0 0.3594385585427806 76.07265305711456 20.73112335278716 1 0 1
4988 0 1 0 4.731801337591625 90.94335499873722 20.210342926182236 1 0 1
4957 0 1 0 1.0803887780473662 74.8726848655332 20.82344078075584 1 0 1
4740 0 1 0 0.5096974377400232 85.95611493636305 20.014490340210056 1 0 1
4982 0 1 0 2.579328243005925 89.71843323723226 20.008479150941323 1 0 1
4732 0 1 0 0.4125879108331829 80.95334866935875 20.21994437421485 1 0 1
4728 0 1 0 0.3791695569589691 78.49114593997204 20.56218532966189 1 0 1
5015 0 1 0 3.345624451510881 108.19025309752186 18.832959627594477 1 0 1
4780 0 1 0 0.5068660698460026 110.56782721925143 18.162123403817674 1 0 1
5013 0 1 0 1.1625911175337529 109.35283842671845 18.559274240393037 1 0 1
5253 0 1 0 5.57416118785506 109.42105807064833 18.839569095419257 1 0 1
5020 0 1 0 4.826066145286857 110.6082959624379 18.69603026764184 1 0 1
5016 0 1 0 4.796580875884662 108.17158044214969 18.833836119391524 1 0 1
5019 0 1 0 3.3984790953000683 110.55237358814715 18.589427222297804 1 0 1
5014 0 1 0 2.624988714482461 109.39018351171676 18.677129540757274 1 0 1
4776 0 1 0 0.46440495895745587 108.12890243007884 18.56200728029917 1 0 1
5232 0 1 0 9.056337226797766 93.34198849676318 20.48736958793087 1 0 1
5246 0 1 0 6.910515818553215 104.45863283949342 19.237718887927457 1 0 1
5231 0 1 0 7.61428726075189 93.35799457105985 20.352728558947593 1 0 1
4991 0 1 0 3.266724223581397 93.4280247858412 20.176069020561815 1 0 1
4992 0 1 0 4.733509656402833 93.38863862892224 20.226550724855354 1 0 1
5236 0 1 0 9.035057702673566 95.78478098653116 20.331547907090613 1 0 1
5240 0 1 0 9.05267576730739 98.33053105225623 19.95276737251471 1 0 1
5234 0 1 0 6.941814988985748 97.0929048389465 20.176927377536458 1 0 1
5007 0 1 0 3.277071538118626 103.26451147578773 19.260937913778896 1 0 1
4764 0 1 0 0.41044711048395105 100.7133774379529 19.34291201876015 1 0 1
5239 0 1 0 7.654210494829693 98.3224066033866 19.997987195070852 1 0 1
5229 0 1 0 5.420347173560367 94.6395279800213 20.19466192012197 1 0 1
4990 0 1 0 2.540382202936731 94.66657686045758 20.050370114712553 1 0 1
5235 0 1 0 7.587321808692898 95.77705244283017 20.309991530334457 1 0 1
5230 0 1 0 6.842721019900679 94.6015717891905 20.290177012417676 1 0 1
5001 0 1 0 1.1561857677778535 101.96094020707517 19.201868947945474 1 0 1
4996 0 1 0 4.755438073808781 95.86394154202983 20.153180500429745 1 0 1
4995 0 1 0 3.3055921307993574 95.87635422216948 19.99820696616861 1 0 1
4752 0 1 0 0.4145836390340056 93.45206584729326 19.845789535706064 1 0 1
5233 0 1 0 5.471393087846643 97.10670390351584 20.114490082743586 1 0 1
4989 0 1 0 1.1187144198317134 94.65573729148596 19.950286921511815 1 0 1
5244 0 1 0 9.04049137954177 100.82172773085031 19.625364876184836 1 0 1
5243 0 1 0 7.614311367168589 100.81470133241241 19.536902071132275 1 0 1
4994 0 1 0 2.5757222520857423 97.09310957456299 19.937710476605428 1 0 1
5238 0 1 0 6.9118599639930585 99.58483025586169 19.69799668167096 1 0 1
4756 0 1 0 0.39337032716924586 95.85909075965347 19.86353467601717 1 0 1
5237 0 1 0 5.450057244017189 99.56214188737296 19.70643329310795 1 0 1
5000 0 1 0 4.748363021330631 98.33006261624624 19.858206150818447 1 0 1
4999 0 1 0 3.2995966725846326 98.34403836480794 19.846384314257257 1 0 1
4993 0 1 0 1.1168157521378383 97.08412955849852 19.91297715846574 1 0 1
4760 0 1 0 0.4258138378339476 98.29093037757622 19.738682811420887 1 0 1
4998 0 1 0 2.5755651002712803 99.5304709289757 19.66685585303124 1 0 1
5004 0 1 0 4.729163346429098 100.77105637218234 19.57949736134436 1 0 1
5003 0 1 0 3.2602464749110402 100.77897989188129 19.52278392940425 1 0 1
4997 0 1 0 1.1221242706997774 99.51163537497158 19.555670293951394 1 0 1
5242 0 1 0 6.889374417211559 102.02602709629036 19.450201601647912 1 0 1
5248 0 1 0 9.036862112196868 103.25398895616222 19.267206154886477 1 0 1
5241 0 1 0 5.458009749759679 101.99977001880143 19.48437618731651 1 0 1
5247 0 1 0 7.606807996562384 103.20827876841476 19.305989204493407 1 0 1
5002 0 1 0 2.5832457028322615 102.00440476411009 19.324699845822494 1 0 1
5008 0 1 0 4.722831543754333 103.23809892570165 19.292038837041655 1 0 1
5245 0 1 0 5.473025840286759 104.51234893969921 19.17029368771461 1 0 1
5251 0 1 0 7.646858577786814 105.70489159889136 19.19985446740055 1 0 1
5012 0 1 0 4.763292383536708 105.74518860862885 19.0985721182964 1 0 1
5250 0 1 0 6.947556462347695 106.93486304648009 19.08190391296719 1 0 1
5256 0 1 0 9.101230719675698 108.20134080054903 19.299731417686296 1 0 1
5011 0 1 0 3.3056851159605207 105.74161380355139 19.042417298703338 1 0 1
5249 0 1 0 5.501599123290423 106.94262089576532 18.990551122582985 1 0 1
5252 0 1 0 9.076165863314088 105.72142573262812 19.21685707916563 1 0 1
5255 0 1 0 7.691771750502103 108.17305689984032 19.06171593489597 1 0 1
4768 0 1 0 0.4477915177189968 103.21066614312186 19.074950383419598 1 0 1
5260 0 1 0 9.112186392775243 110.66524529668953 19.152568767265276 1 0 1
5006 0 1 0 2.536373728001988 104.4922556487039 19.17228634299702 1 0 1
5005 0 1 0 1.1160103104665628 104.42053288109628 19.135905727260962 1 0 1
5254 0 1 0 7.019679591693822 109.39572295938295 18.901662353632073 1 0 1
5010 0 1 0 2.6097264821952666 106.93678010256976 18.986667266850407 1 0 1
5259 0 1 0 7.683977344953816 110.65755913756286 18.976012540728576 1 0 1
4772 0 1 0 0.39643897278972845 105.67324888945303 19.041065513697124 1 0 1
5009 0 1 0 1.1313837909289666 106.88970839699635 18.920795937100195 1 0 1
5017 0 1 0 1.288815861710282 111.78426914139396 18.0927371066435 1 0 1
5257 0 1 0 5.564270881057754 111.85652507386122 18.6814566556486 1 0 1
5024 0 1 0 4.8306150278921995 113.11050810796118 18.456057223184427 1 0 1
5261 0 1 0 5.538660196656596 114.32990735111233 18.431075917322328 1 0 1