LAMMPS (4 Feb 2025)
OMP_NUM_THREADS environment is not set. Defaulting to 1 thread. (src/comm.cpp:99)
  using 1 OpenMP thread(s) per MPI task
# LAMMPS script for continuing NVT simulation

atom_modify map yes
newton      on

read_restart nvt_prod.restart.1120000
Reading restart file ...
  restart file = 4 Feb 2025, LAMMPS = 4 Feb 2025
  restoring atom style full from restart
  orthogonal box = (0 0 0) to (154.008 148.2 151.07609)
  16 by 8 by 10 MPI processor grid
  pair style symmetrix/mace stores no restart info
  10440 atoms
Finding 1-2 1-3 1-4 neighbors ...
  special bond factors lj:    0        0        0       
  special bond factors coul:  0        0        0       
     0 = max # of 1-2 neighbors
     0 = max # of 1-3 neighbors
     0 = max # of 1-4 neighbors
     1 = max # of special neighbors
  special bonds CPU = 4.454 seconds
  read_restart CPU = 4.695 seconds

pair_style  symmetrix/mace
pair_coeff  * * ../../../../00-common/models/ch2o-dens-inv_swa-1-6-8.json C H O
Loading MACE model from '../../../../00-common/models/ch2o-dens-inv_swa-1-6-8.json' ... success
  mapping LAMMPS type 1 (C) to MACE type 1
  mapping LAMMPS type 2 (H) to MACE type 0
  mapping LAMMPS type 3 (O) to MACE type 2

group graphene type 1
8640 atoms in group graphene
group H2O type 2 3
1800 atoms in group H2O

thermo 1000

######### NVT production for 80 ps #############

dump DUMP1 all atom 100 nvt_prod_14.lammpstrj
timestep 0.001
fix NVT1 graphene nvt temp 300 300 0.1
Resetting global fix info from restart file:
  fix style: nvt, fix ID: NVT1
fix NVT2 H2O nvt temp 300 300 0.1
Resetting global fix info from restart file:
  fix style: nvt, fix ID: NVT2
run 80000
All restart file global fix info was re-assigned
Neighbor list info ...
  update: every = 1 steps, delay = 0 steps, check = yes
  max neighbors/atom: 2000, page size: 100000
  master list distance cutoff = 8
  ghost atom cutoff = 8
  binsize = 4, bins = 39 38 38
  1 neighbor lists, perpetual/occasional/extra = 1 0 0
  (1) pair symmetrix/mace, perpetual
      attributes: full, newton on
      pair build: full/bin
      stencil: full/bin/3d
      bin: standard
Per MPI rank memory allocation (min/avg/max) = 5.917 | 6.144 | 7.899 Mbytes
   Step          Temp          E_pair         E_mol          TotEng         Press     
   1120000   300.89424     -1622013.5      0             -1621607.5      33.391343    
   1121000   303.88127     -1622012.5      0             -1621602.5      44.362771    
   1122000   297.99499     -1622014.7      0             -1621612.6      18.303758    
   1123000   301.81001     -1622009        0             -1621601.7      20.902749    
   1124000   300.56424     -1622017.9      0             -1621612.4      50.186504    
   1125000   301.99846     -1622015.7      0             -1621608.2      69.333571    
   1126000   296.66742     -1622018.8      0             -1621618.5      36.186032    
   1127000   299.42781     -1622018        0             -1621614        27.911758    
   1128000   299.38945     -1622016.7      0             -1621612.7      41.242613    
   1129000   300.28867     -1622011.9      0             -1621606.7      6.4909758    
   1130000   301.98618     -1622017.8      0             -1621610.3      8.6477369    
   1131000   299.70276     -1622014.6      0             -1621610.2      18.156331    
   1132000   299.07761     -1622019.9      0             -1621616.3      42.71803     
   1133000   300.3132      -1622015.9      0             -1621610.7      45.775167    
   1134000   298.24845     -1622016.3      0             -1621613.9      17.058881    
   1135000   297.22184     -1622019.4      0             -1621618.4      22.028605    
   1136000   301.04153     -1622014        0             -1621607.8      20.21675     
   1137000   297.8325      -1622018.5      0             -1621616.7      19.206772    
   1138000   295.2825      -1622015.8      0             -1621617.3      45.424148    
   1139000   302.541       -1622017.9      0             -1621609.7      65.496168    
   1140000   293.71973     -1622022        0             -1621625.7      3.9993828    
   1141000   297.86197     -1622014        0             -1621612.1      14.344379    
   1142000   301.96941     -1622014.7      0             -1621607.3      52.142637    
   1143000   301.93163     -1622020.3      0             -1621612.9      43.57245     
   1144000   299.67966     -1622021.6      0             -1621617.3      51.526343    
   1145000   301.48649     -1622016.1      0             -1621609.3      32.601024    
   1146000   302.58736     -1622021.9      0             -1621613.6      25.246438    
   1147000   299.82325     -1622022.9      0             -1621618.4      36.624948    
   1148000   303.18035     -1622020.3      0             -1621611.2      17.305423    
   1149000   302.78969     -1622020.5      0             -1621611.9      14.509489    
   1150000   297.38174     -1622024.2      0             -1621622.9      23.050429    
   1151000   304.70338     -1622025.1      0             -1621614        68.202018    
   1152000   301.52259     -1622011.3      0             -1621604.4      76.226953    
   1153000   301.60312     -1622017        0             -1621610        58.098494    
   1154000   302.32743     -1622014.1      0             -1621606.1      59.76446     
   1155000   299.65679     -1622016.5      0             -1621612.2      74.754734    
   1156000   299.41297     -1622012.2      0             -1621608.2      49.296459    
   1157000   298.59609     -1622017.1      0             -1621614.2      62.937386    
   1158000   299.69241     -1622018.5      0             -1621614.1      56.754643    
   1159000   297.06592     -1622013        0             -1621612.2      48.172323    
   1160000   301.84533     -1622019        0             -1621611.7      69.903193    
   1161000   300.0917      -1622014.9      0             -1621609.9      33.938079    
   1162000   300.40701     -1622018.3      0             -1621613        38.089337    
   1163000   300.14311     -1622016.8      0             -1621611.8      24.217382    
   1164000   296.71576     -1622014.2      0             -1621613.8      12.581305    
   1165000   296.68392     -1622014.7      0             -1621614.4      18.63886     
   1166000   298.74837     -1622013.7      0             -1621610.6      29.506158    
   1167000   299.96692     -1622024.8      0             -1621620        44.804535    
   1168000   301.15986     -1622017.6      0             -1621611.2      25.993296    
   1169000   300.86922     -1622019.7      0             -1621613.7      27.659965    
   1170000   299.58281     -1622022.8      0             -1621618.6      64.621829    
   1171000   295.37269     -1622021.5      0             -1621623        40.849569    
   1172000   303.11663     -1622016        0             -1621607        60.764936    
   1173000   299.60445     -1622016.4      0             -1621612.1      44.039592    
   1174000   297.90073     -1622015.3      0             -1621613.4      23.397699    
   1175000   302.47099     -1622016        0             -1621607.9      51.199451    
   1176000   299.95976     -1622018.1      0             -1621613.4      36.09258     
   1177000   303.20229     -1622011        0             -1621601.9      17.636898    
   1178000   299.70866     -1622019.8      0             -1621615.4      44.359382    
   1179000   300.89264     -1622021.1      0             -1621615.1      48.672468    
   1180000   305.10786     -1622017.8      0             -1621606.1      43.932502    
   1181000   296.22781     -1622018.9      0             -1621619.2      65.264446    
   1182000   303.09054     -1622017.1      0             -1621608.1      62.646979    
   1183000   299.67076     -1622024.9      0             -1621620.6      29.188575    
   1184000   302.98671     -1622019.5      0             -1621610.7      40.840709    
   1185000   297.77366     -1622017.7      0             -1621615.9      48.367329    
   1186000   304.53033     -1622020.7      0             -1621609.8      69.295116    
   1187000   297.34561     -1622015.2      0             -1621613.9      44.566282    
   1188000   296.35222     -1622013.8      0             -1621613.9      49.204125    
   1189000   300.37065     -1622022        0             -1621616.7      46.26868     
   1190000   304.2718      -1622009.6      0             -1621599        43.57        
   1191000   299.04117     -1622013.4      0             -1621609.9      71.662714    
   1192000   299.12654     -1622018.4      0             -1621614.8      43.799987    
   1193000   299.51502     -1622021.9      0             -1621617.8      54.185624    
   1194000   302.19351     -1622020.8      0             -1621613.1      11.091894    
   1195000   305.43707     -1622019.3      0             -1621607.2      23.297993    
   1196000   302.24034     -1622022.9      0             -1621615        37.15425     
   1197000   302.49661     -1622019.1      0             -1621611        40.082948    
   1198000   298.53493     -1622016.8      0             -1621614        46.473423    
   1199000   298.00557     -1622020.6      0             -1621618.4      50.196019    
   1200000   299.41263     -1622020.4      0             -1621616.3      24.518414    
Loop time of 48535.4 on 1280 procs for 80000 steps with 10440 atoms

Performance: 0.142 ns/day, 168.526 hours/ns, 1.648 timesteps/s, 17.208 katom-step/s
100.0% CPU use with 1280 MPI tasks x 1 OpenMP threads

MPI task timing breakdown:
Section |  min time  |  avg time  |  max time  |%varavg| %total
---------------------------------------------------------------
Pair    | 0.1334     | 3494.9     | 48135      |13650.7 |  7.20
Bond    | 0.0031797  | 0.006267   | 0.031123   |   6.2 |  0.00
Neigh   | 0.013984   | 0.095002   | 4.0392     |  78.4 |  0.00
Comm    | 0.5444     | 1354.4     | 18925      |9593.9 |  2.79
Output  | 0.822      | 5.7198     | 10.829     | 123.1 |  0.01
Modify  | 6.5626     | 43673      | 48522      |5269.3 | 89.98
Other   |            | 7.426      |            |       |  0.02

Nlocal:        8.15625 ave         230 max           0 min
Histogram: 1147 1 91 27 2 5 1 2 1 3
Nghost:        82.0289 ave        1229 max           0 min
Histogram: 959 39 242 19 8 5 3 3 0 2
Neighs:              0 ave           0 max           0 min
Histogram: 1280 0 0 0 0 0 0 0 0 0
FullNghs:      787.606 ave       42901 max           0 min
Histogram: 1147 115 4 2 6 0 2 0 1 3

Total # of neighbors = 1008136
Ave neighs/atom = 96.564751
Ave special neighs/atom = 0
Neighbor list builds = 3607
Dangerous builds = 0

write_restart nvt_prod.restart.*
System init for write_restart ...
write_data nvt_prod_final.lammps-data
System init for write_data ...

Total wall time: 13:29:27
