LAMMPS data file via write_data, version 4 Feb 2025, timestep = 1200000, units = metal

10440 atoms
3 atom types

0 154.00799999999998 xlo xhi
0 148.2 ylo yhi
0 151.07609208607428 zlo zhi

Masses

1 12.01099999691024
2 1.007999999740698
3 15.99899999588435

Atoms # full

7271 0 1 0 1.526918781856691 2.924384496342588 83.238705397431 1 0 1
7219 0 1 0 1.5221350258841422 0.4545384045465007 83.30800097435366 1 0 1
7272 0 1 0 2.2066599050571702 4.107225519921386 83.42408867814308 1 0 1
7220 0 1 0 2.2522045289603234 1.6967560790259173 83.25140947972186 1 0 1
7283 0 1 0 3.6373209659735584 4.15170086259431 83.38689171431189 1 0 1
7282 0 1 0 4.345355722047783 2.9202740460538945 83.41681908655231 1 0 1
7221 0 1 0 3.6327538743152537 1.6723293616043808 83.36143169335973 1 0 1
7230 0 1 0 4.381849412930449 0.4516498817642675 83.3722827258562 1 0 1
7351 0 1 0 5.703761877891606 15.325011995579388 83.82367707617964 1 0 1
7353 0 1 0 5.746397091541612 17.75136444574897 83.64038238628304 1 0 1
7239 0 1 0 5.805961394390498 0.46455307218307207 83.38287147457167 1 0 1
7303 0 1 0 7.911889931306002 4.1305256452825905 83.52340587212036 1 0 1
7240 0 1 0 6.517914136401342 1.63644582735555 83.39750656786785 1 0 1
7292 0 1 0 6.512039614268021 4.126135415585168 83.38949602028258 1 0 1
7291 0 1 0 5.802141633893858 2.848670601918722 83.43311248501375 1 0 1
7250 0 1 0 8.63697309577022 0.44927899268059523 83.41205284405763 1 0 1
7302 0 1 0 8.644028966128108 2.8881636333498077 83.48980072949126 1 0 1
7241 0 1 0 7.9423794599765305 1.6328397264080676 83.33709001656624 1 0 1
7276 0 1 0 2.164893700294191 9.117650060978484 83.76104860086339 1 0 1
7287 0 1 0 3.562050217265956 9.125707195054309 83.80938345819084 1 0 1
7286 0 1 0 4.26050257265947 7.849354331695181 83.65425753678906 1 0 1
7274 0 1 0 2.2016167647016336 6.589090348552843 83.586047284237 1 0 1
7275 0 1 0 1.4637476156437135 7.805406360262437 83.70352079339084 1 0 1
7273 0 1 0 1.489751128217123 5.362436134185014 83.53481827989093 1 0 1
7285 0 1 0 3.5869156466921868 6.610749435049555 83.57163268146128 1 0 1
7284 0 1 0 4.341633694059117 5.393998216680391 83.43903735059658 1 0 1
7300 0 1 0 6.428461285451981 14.078811177538439 83.91534310188548 1 0 1
7301 0 1 0 7.867252565842925 14.062849148778024 84.01536027461223 1 0 1
7296 0 1 0 6.467008835885713 9.12495904341226 83.72701848078243 1 0 1
7295 0 1 0 5.738016609940795 7.854075979439313 83.63354074112162 1 0 1
7306 0 1 0 8.63537011263707 7.83608942197291 83.6960293227396 1 0 1
7307 0 1 0 7.877720176801541 9.082606544394284 83.80962172182578 1 0 1
7304 0 1 0 8.660729019898426 5.36631870330243 83.5603503254011 1 0 1
7293 0 1 0 5.800318135044791 5.346604798300617 83.47957424893922 1 0 1
7294 0 1 0 6.505911348925439 6.62223312705989 83.4827718700291 1 0 1
7305 0 1 0 7.938118172218344 6.626787009205536 83.56395240558368 1 0 1
7279 0 1 0 1.393998019755688 12.784784850818763 83.69301924197411 1 0 1
7278 0 1 0 2.1757664928510754 11.551840235076135 83.8445979340201 1 0 1
7277 0 1 0 1.442385077566026 10.281410611104357 83.72554398888082 1 0 1
7290 0 1 0 4.261644768676964 12.814524269904778 83.86681733225664 1 0 1
7289 0 1 0 3.5948981966709495 11.573669225985274 83.85001975776483 1 0 1
7288 0 1 0 4.3377701965677415 10.33056101326109 83.75253816100792 1 0 1
7364 0 1 0 8.581181684024491 17.761039635454445 83.86267371047951 1 0 1
7297 0 1 0 5.7475401711081195 10.320677122889322 83.78767990170687 1 0 1
7299 0 1 0 5.7220700147910275 12.864830754148402 83.87942076948127 1 0 1
7310 0 1 0 8.570631187019307 12.835604655644174 83.95337795648311 1 0 1
7308 0 1 0 8.571503080037365 10.363334190931957 83.84815063114931 1 0 1
7309 0 1 0 7.828855705087338 11.588584423399306 83.87437338005121 1 0 1
7298 0 1 0 6.415823826441159 11.588448727576807 83.94227277367459 1 0 1
7331 0 1 0 1.4114441227302663 15.27462758742934 83.70864603809768 1 0 1
7280 0 1 0 2.121603755934587 14.033614144666489 83.69092487725831 1 0 1
7342 0 1 0 4.266425813755254 15.312653987505076 83.72183878732974 1 0 1
7333 0 1 0 1.4354148256696304 17.71235180601754 83.44593126520178 1 0 1
7343 0 1 0 3.5642869683591707 16.50108039686045 83.55903784926697 1 0 1
7332 0 1 0 2.147298555794994 16.50091049385151 83.54406581063643 1 0 1
7344 0 1 0 4.298998155101797 17.719992376800093 83.47925608995759 1 0 1
7281 0 1 0 3.5440179148871493 14.060165786129359 83.8969529550409 1 0 1
7362 0 1 0 8.512959253872728 15.33530873310235 84.0527575806124 1 0 1
7363 0 1 0 7.832269813082807 16.518338145329363 83.8329741576189 1 0 1
7352 0 1 0 6.423073894598538 16.540824890607418 83.80000031072456 1 0 1
7262 0 1 0 0.07074220657350717 2.897615150031475 83.2277780880504 1 0 1
7264 0 1 0 0.052506273728586246 5.383259270582289 83.47151673613507 1 0 1
7322 0 1 0 0.003785048942594912 15.287053859643972 83.7285806909046 1 0 1
7210 0 1 0 0.08848786766452883 0.445873563141034 83.21282997510251 1 0 1
7324 0 1 0 0.00378269627757576 17.727939749522136 83.53620364069891 1 0 1
7266 0 1 0 0.005575650909056454 7.792660163535297 83.59214302499367 1 0 1
7268 0 1 0 0.028622680337703175 10.326602933849239 83.75894334841581 1 0 1
7337 0 1 0 1.4557665286126122 22.68481891740981 83.18953109055025 1 0 1
7335 0 1 0 1.4971004911029289 20.188419086244828 83.32800384762314 1 0 1
7334 0 1 0 2.1542682559354502 18.931827068078647 83.37808218542995 1 0 1
7346 0 1 0 4.2721055743565275 20.208807702742554 83.33607189128705 1 0 1
7348 0 1 0 4.28838500733614 22.67645997558364 83.16171848035238 1 0 1
7347 0 1 0 3.570851679689277 21.448921723882158 83.30829601162543 1 0 1
7345 0 1 0 3.613043840801706 18.939860801880688 83.32549885361702 1 0 1
7336 0 1 0 2.1928515489944225 21.44947766850092 83.29254702151182 1 0 1
7415 0 1 0 5.7192852146393065 32.39044409398627 81.59272248841246 1 0 1
7355 0 1 0 5.719349438299444 20.235288241113093 83.37834305916678 1 0 1
7357 0 1 0 5.7117708052190626 22.744682454758514 83.20157007057907 1 0 1
7366 0 1 0 8.595360851945578 20.202963704021066 83.59169923397239 1 0 1
7367 0 1 0 7.905177051739049 21.469288347301397 83.30425640651505 1 0 1
7365 0 1 0 7.831628426881312 18.991596370258275 83.72618948395888 1 0 1
7356 0 1 0 6.475657001325071 21.44042118562394 83.31007054773251 1 0 1
7354 0 1 0 6.439425448569464 19.05630541347206 83.57950738839199 1 0 1
7368 0 1 0 8.628872097664399 22.706405278584583 83.23021936995453 1 0 1
7350 0 1 0 4.305887851577071 25.109849599172986 82.70231727928766 1 0 1
7339 0 1 0 1.3733321074974416 25.064331599430876 82.74019229031829 1 0 1
7338 0 1 0 2.1296309484183507 23.920480218944828 82.96640567088625 1 0 1
7349 0 1 0 3.6071239147618064 23.93207900440158 82.98345855787063 1 0 1
7340 0 1 0 2.0693256441433046 26.256747449861262 82.40019710649311 1 0 1
7391 0 1 0 1.375064588643186 27.550659854941472 82.1899307848442 1 0 1
7341 0 1 0 3.5289538523496295 26.272644275160598 82.31838685992427 1 0 1
7402 0 1 0 4.300303919816455 27.528651798955828 82.07336530100373 1 0 1
7411 0 1 0 5.707939377315379 27.508022292369404 82.23518795285747 1 0 1
7359 0 1 0 5.741826754010635 25.133560602923446 82.77610174697132 1 0 1
7360 0 1 0 6.403710088559348 26.27977151430807 82.44374302491694 1 0 1
7358 0 1 0 6.482052580704811 23.956026924120962 83.00658175353942 1 0 1
7369 0 1 0 7.8989275500363325 23.91514410088903 83.10389574569172 1 0 1
7370 0 1 0 8.55518561743908 25.15159965074111 82.80166295473104 1 0 1
7361 0 1 0 7.808831469862365 26.308056456787412 82.5237828597158 1 0 1
7422 0 1 0 8.513136983453043 27.54438946337417 82.33268335103146 1 0 1
7392 0 1 0 2.142310872567858 28.74937693693058 81.9483076159038 1 0 1
7403 0 1 0 3.555981983008922 28.715933438736354 81.88681631573678 1 0 1
7393 0 1 0 1.4047832320857918 29.980327695158284 81.94687136740919 1 0 1
7394 0 1 0 2.1274712423817297 31.190270608660466 81.87891608424302 1 0 1
7404 0 1 0 4.283288482411681 29.935484348204586 81.87928145976893 1 0 1
7405 0 1 0 3.574154855207771 31.211134975869243 81.80807535294427 1 0 1
7424 0 1 0 8.557373320261608 29.983559211436962 81.7884607556144 1 0 1
7413 0 1 0 5.740311063526218 29.96190616290286 81.88702256496963 1 0 1
7414 0 1 0 6.408172017962187 31.167326128651936 81.6303582531382 1 0 1
7425 0 1 0 7.831539674085835 31.194579728376162 81.54175708021123 1 0 1
7412 0 1 0 6.450143192256744 28.739166370537475 82.05514479127557 1 0 1
7423 0 1 0 7.878937517420732 28.756339447944193 82.00646230762146 1 0 1
7395 0 1 0 1.5268642192616648 32.48125089502969 81.93198208876031 1 0 1
7397 0 1 0 1.503536079977088 34.92649403389919 81.90051520492685 1 0 1
7406 0 1 0 4.318908637329673 32.444294487886225 81.64340829134889 1 0 1
7409 0 1 0 3.5649939130343653 36.20160900422927 81.65471722269699 1 0 1
7398 0 1 0 2.153239648711961 36.161853075623355 81.80946839524736 1 0 1
7408 0 1 0 4.305372902870499 34.94650520307772 81.60489283805558 1 0 1
7396 0 1 0 2.2479795351309697 33.70144014309528 81.906078091326 1 0 1
7407 0 1 0 3.6528288148881427 33.668481664634776 81.71189641851413 1 0 1
7417 0 1 0 5.735976040673616 34.94618082745121 81.55437639361062 1 0 1
7427 0 1 0 7.8453667552875395 33.688132816262694 81.42708438686994 1 0 1
7426 0 1 0 8.574362175108288 32.45597554331231 81.43959797327943 1 0 1
7416 0 1 0 6.469622143048995 33.66545389529563 81.59236044318732 1 0 1
7429 0 1 0 7.859462484313868 36.18321050168294 81.42177058794847 1 0 1
7428 0 1 0 8.571110934192149 34.92107458390732 81.41164718701305 1 0 1
7418 0 1 0 6.411113899333491 36.17115342281475 81.46733742379904 1 0 1
7388 0 1 0 0.08186023978485361 34.88632807254846 82.14313385125696 1 0 1
7326 0 1 0 0.07891444168286203 20.181972934337487 83.29080114892581 1 0 1
7386 0 1 0 0.09162223393807917 32.52785791703064 82.06183226620631 1 0 1
7382 0 1 0 0.00643213178061134 27.553517199479533 82.39611593751762 1 0 1
7328 0 1 0 0.02186562068968365 22.668681233652986 83.21478834315906 1 0 1
7400 0 1 0 2.161363704084371 38.6370762346465 81.68323770188789 1 0 1
7451 0 1 0 1.478995850752097 39.910931900656045 81.69797321798384 1 0 1
7401 0 1 0 3.5288799086779936 38.67976871881892 81.507214904266 1 0 1
7410 0 1 0 4.248131703584339 37.43447774603986 81.61763195334537 1 0 1
7399 0 1 0 1.4533738996191674 37.403856215977974 81.81287374718653 1 0 1
7452 0 1 0 2.177686500431043 41.12946720905023 81.63729402831476 1 0 1
7463 0 1 0 3.6174188161133234 41.145138011661366 81.60327395608745 1 0 1
7462 0 1 0 4.339421521206994 39.92529610960765 81.54496376610626 1 0 1
7533 0 1 0 5.784583197501641 54.80005785623992 81.84428184794383 1 0 1
7531 0 1 0 5.804137604949444 52.24928196209097 81.63684369423709 1 0 1
7430 0 1 0 8.568441997428529 37.3927628385859 81.31124884586188 1 0 1
7419 0 1 0 5.678963524586285 37.41491657290719 81.47086810158343 1 0 1
7471 0 1 0 5.731226369224329 39.87245773149679 81.51828670432057 1 0 1
7472 0 1 0 6.485676425340061 41.10850268884639 81.57512043768351 1 0 1
7483 0 1 0 7.882128461413877 41.0938049200405 81.59986441733852 1 0 1
7421 0 1 0 7.84202549098859 38.6819106281232 81.44102346447492 1 0 1
7420 0 1 0 6.41205544333756 38.64336594722392 81.45252338306281 1 0 1
7482 0 1 0 8.593648169064425 39.922220352300094 81.46939317657518 1 0 1
7455 0 1 0 1.4293485341532184 44.84734218697962 81.5879062223515 1 0 1
7453 0 1 0 1.433491274947829 42.370421074793725 81.47718314871058 1 0 1
7465 0 1 0 3.6022502603218673 43.60840874969184 81.46205451440171 1 0 1
7464 0 1 0 4.3177440627449535 42.37916518658202 81.56098067520703 1 0 1
7456 0 1 0 2.1615233073532973 46.06794961926354 81.70239031508781 1 0 1
7467 0 1 0 3.5860464728958865 46.04801742148726 81.6058111883949 1 0 1
7466 0 1 0 4.310058155268632 44.80382248750111 81.55948655431894 1 0 1
7454 0 1 0 2.1694506835213483 43.63326346168764 81.47927696554044 1 0 1
7532 0 1 0 6.5219098263866115 53.54850242261864 81.73359793100919 1 0 1
7544 0 1 0 8.613281444792353 54.73594855145049 81.97123292392644 1 0 1
7473 0 1 0 5.747963063699569 42.384034835856916 81.59007047698526 1 0 1
7475 0 1 0 5.757599215725975 44.81111530793073 81.5439891645841 1 0 1
7474 0 1 0 6.456621503374467 43.54829629790854 81.5198903616597 1 0 1
7476 0 1 0 6.50923011440112 46.03891336027513 81.59139851584281 1 0 1
7486 0 1 0 8.605371447825627 44.84752951697958 81.55896574913072 1 0 1
7487 0 1 0 7.909824630271991 46.096072137677005 81.48178243385442 1 0 1
7485 0 1 0 7.882143483218387 43.613753350329155 81.5380973610349 1 0 1
7484 0 1 0 8.576784771746638 42.35087783271429 81.59003174001549 1 0 1
7457 0 1 0 1.5154451877867616 47.334881035165274 81.80793219628649 1 0 1
7458 0 1 0 2.235529525374952 48.53254243879778 81.88785927927816 1 0 1
7459 0 1 0 1.5447066012656714 49.79765723102686 81.89673017937785 1 0 1
7468 0 1 0 4.353072777068224 47.30672261990766 81.66014025074988 1 0 1
7469 0 1 0 3.6793216051418005 48.559532619458516 81.74520351626974 1 0 1
7470 0 1 0 4.402026948527488 49.80202081203533 81.77292921888589 1 0 1
7480 0 1 0 6.527907560821459 50.988569573254715 81.59898508485212 1 0 1
7488 0 1 0 8.629279416862978 47.293763923636014 81.55976157492276 1 0 1
7478 0 1 0 6.493887745445694 48.52343865264443 81.71940574934484 1 0 1
7489 0 1 0 7.921089659798785 48.55438149552248 81.5716456895533 1 0 1
7490 0 1 0 8.640776442267923 49.80515580539926 81.50346236715139 1 0 1
7477 0 1 0 5.805076672138551 47.29050469392978 81.70744251369251 1 0 1
7479 0 1 0 5.818947123529536 49.768797592767214 81.68732017166047 1 0 1
7460 0 1 0 2.2803467571128926 51.06130753357365 81.88125989063542 1 0 1
7511 0 1 0 1.530012106096669 52.27712662119126 81.81174603647128 1 0 1
7524 0 1 0 4.322889580411918 54.79180881804752 81.80298992337366 1 0 1
7513 0 1 0 1.5108455043788434 54.74476107353058 81.93154483293861 1 0 1
7523 0 1 0 3.704369408113141 53.54947612957292 81.80981459829543 1 0 1
7522 0 1 0 4.38019790540449 52.33470938734889 81.67635081254421 1 0 1
7461 0 1 0 3.6898509916928695 51.05991532651794 81.82309112069042 1 0 1
7512 0 1 0 2.266314340150255 53.495565017593556 81.79519667112281 1 0 1
7543 0 1 0 7.94730216407922 53.46148561352787 81.70639636963769 1 0 1
7542 0 1 0 8.616220924597286 52.246554903777806 81.67210788858469 1 0 1
7481 0 1 0 7.944944343463582 51.0421882293179 81.5151096518623 1 0 1
7446 0 1 0 0.018275314698061162 44.82188022543281 81.7104561749003 1 0 1
7444 0 1 0 0.04530134130995917 42.390289156957635 81.70089878058688 1 0 1
7450 0 1 0 0.15405043503078597 49.83546313049547 81.97328003896585 1 0 1
7504 0 1 0 0.06279437922465099 54.760628823992676 81.9248384708326 1 0 1
7448 0 1 0 0.08811235243454603 47.34909355558583 81.92259383913976 1 0 1
7390 0 1 0 0.047794407238175705 37.399271312543824 82.04810199543206 1 0 1
7442 0 1 0 0.11063030851809588 39.934539588251035 81.92118312565934 1 0 1
7502 0 1 0 0.09299317698008283 52.294275008795836 81.8704100713827 1 0 1
9974 0 3 0 1.8592894436945118 66.22521236870041 60.95770274330416 -2 1 2
8907 0 2 0 1.7869909368869454 65.6755127788491 61.70460063444595 -2 1 2
8908 0 2 0 0.9228954677252278 66.35580693617678 60.705916460784906 -2 1 2
7514 0 1 0 2.1850911632454415 55.99958620769931 81.8974487335067 1 0 1
7525 0 1 0 3.6219142429333697 56.00076453799557 81.82395736039497 1 0 1
7515 0 1 0 1.5390247913178836 57.27453631334669 81.88471707106672 1 0 1
7516 0 1 0 2.22097776063484 58.499381664634754 81.90701288272726 1 0 1
7526 0 1 0 4.3483926673427105 57.247184273149784 81.9828101471577 1 0 1
7527 0 1 0 3.6362397229736776 58.46308439785087 81.98134691010908 1 0 1
7517 0 1 0 1.504703013954107 59.713484372847155 82.05069471537583 1 0 1
7528 0 1 0 4.3092047873547115 59.67097889574753 82.27132049133083 1 0 1
7595 0 1 0 5.744494631782268 69.50371483874666 83.02545394271449 1 0 1
7607 0 1 0 7.914749407620438 70.80714566154025 83.14660935333114 1 0 1
7534 0 1 0 6.492583161442933 56.019779970260906 81.9704392328631 1 0 1
7535 0 1 0 5.7741292276370295 57.26342341885218 82.050766583363 1 0 1
7545 0 1 0 7.884938549945288 55.98292638699147 82.10726841781486 1 0 1
7546 0 1 0 8.607152864666892 57.19610513916444 82.32426732165345 1 0 1
7536 0 1 0 6.50174759616437 58.464116251139615 82.16067954536378 1 0 1
7547 0 1 0 7.889255309516608 58.487897692747396 82.29153505037137 1 0 1
7548 0 1 0 8.624507956207067 59.698189975371484 82.44437273845625 1 0 1
7537 0 1 0 5.731258699020476 59.68507938412046 82.36185150790389 1 0 1
7518 0 1 0 2.1858195515735113 60.93764987326639 82.23760857088826 1 0 1
7529 0 1 0 3.575571061967553 60.878993912720425 82.28878129344473 1 0 1
7530 0 1 0 4.297867856392605 62.115059781389796 82.34245093569727 1 0 1
7519 0 1 0 1.4738932217429364 62.19221765060605 82.19156387498091 1 0 1
7520 0 1 0 2.184040211113246 63.414143431206696 82.17648721033433 1 0 1
7521 0 1 0 3.6750563438354313 63.37904324280354 82.35072622467517 1 0 1
7571 0 1 0 1.4944108209959315 64.6321080176165 82.1700398998619 1 0 1
7582 0 1 0 4.34530820508924 64.6048276344517 82.47999574552655 1 0 1
7598 0 1 0 6.51230361276721 73.24418693550115 83.16848345083095 1 0 1
7550 0 1 0 8.57438331624725 62.1908633853841 82.56525299020566 1 0 1
7549 0 1 0 7.885437035592183 60.97655053314684 82.60755876017974 1 0 1
7539 0 1 0 5.728231724140801 62.16222777226343 82.47556646008742 1 0 1
7540 0 1 0 6.466392414436004 63.35376307688017 82.45468617934546 1 0 1
7538 0 1 0 6.461059924902958 60.91742332250471 82.56394548984015 1 0 1
7602 0 1 0 8.581836889033262 64.63065315194625 82.50076712372932 1 0 1
7591 0 1 0 5.802484743482289 64.64921948932552 82.54936387231774 1 0 1
7541 0 1 0 7.891392023579058 63.419932560815454 82.4326275929098 1 0 1
7573 0 1 0 1.4921648215375771 67.10667732429197 82.4501162592532 1 0 1
7574 0 1 0 2.1812244884998337 68.33420207233411 82.54858658247272 1 0 1
7585 0 1 0 3.6174603250898407 68.28690625304557 82.74116368293382 1 0 1
7572 0 1 0 2.198632874504807 65.88096237495726 82.31678156143794 1 0 1
7583 0 1 0 3.6419818812071565 65.83727738472497 82.52680878102662 1 0 1
7584 0 1 0 4.310360309965348 67.09024746613856 82.65373372903981 1 0 1
7606 0 1 0 8.650055692805655 69.5963261739687 83.09548274566774 1 0 1
7603 0 1 0 7.901154763666136 65.87927419717097 82.60358747204076 1 0 1
7605 0 1 0 7.910738514949994 68.33528815683088 82.91364831525377 1 0 1
7594 0 1 0 6.512883174027673 68.33047229347227 82.93462569127524 1 0 1
7592 0 1 0 6.458753578547271 65.87765224302177 82.69100705851926 1 0 1
7593 0 1 0 5.773339046261035 67.06488107657599 82.78807366407571 1 0 1
7604 0 1 0 8.670710203718992 67.1368290141184 82.73098316518377 1 0 1
7586 0 1 0 4.2999163703155885 69.53770260782515 82.98319468540485 1 0 1
7588 0 1 0 4.370737086168752 72.06729173457265 83.01525591642148 1 0 1
7575 0 1 0 1.485426089217448 69.60967971440007 82.7155605212881 1 0 1
7587 0 1 0 3.671554423789484 70.80151551275668 83.0381000499117 1 0 1
7576 0 1 0 2.2305111445737156 70.7708024591277 82.90255650946352 1 0 1
7578 0 1 0 2.1710724200207205 73.25961115135676 82.99238729669393 1 0 1
7577 0 1 0 1.4783974484193312 72.01488669539418 82.92532312882969 1 0 1
7589 0 1 0 3.6264745749064917 73.2930854903156 83.01453129930592 1 0 1
7608 0 1 0 8.561181140930175 72.04807464857409 83.24853651799732 1 0 1
7597 0 1 0 5.802025764894123 71.98010958056193 83.07044572064018 1 0 1
7596 0 1 0 6.499393514094449 70.74736085753561 83.09005209972439 1 0 1
7609 0 1 0 7.917213979177553 73.25407565447225 83.28743034378212 1 0 1
7506 0 1 0 0.0749820480708051 57.27906876762876 81.98074601243448 1 0 1
7510 0 1 0 0.06066129088311621 62.165885089561996 82.19875926238048 1 0 1
7508 0 1 0 0.04923984817508934 59.666859063953616 82.11166459677099 1 0 1
7566 0 1 0 0.08027448462337797 69.53029037918935 82.6349930178671 1 0 1
7562 0 1 0 0.07486800795636553 64.62602757598337 81.99586347897352 1 0 1
7564 0 1 0 0.0356143495455384 67.08254121412028 82.27375886865178 1 0 1
7568 0 1 0 0.051374714811868595 72.0573523859875 82.94654131018716 1 0 1
7590 0 1 0 4.341667313970316 74.52860713905164 83.09138885843328 1 0 1
7643 0 1 0 3.639551331444918 78.19817001111836 83.02330753964976 1 0 1
7579 0 1 0 1.491033462030397 74.51291686713896 82.91456797274049 1 0 1
7580 0 1 0 2.236932766808193 75.75462671274012 82.97391036570328 1 0 1
7581 0 1 0 3.6914778193713302 75.76400310072651 83.05056384846215 1 0 1
7631 0 1 0 1.492945098331523 76.99741859317284 82.9805482723472 1 0 1
7632 0 1 0 2.2559217636752207 78.21507335807186 83.07143272160052 1 0 1
7642 0 1 0 4.338959956263625 77.01110363621974 83.0331269357146 1 0 1
7723 0 1 0 7.846595653120422 90.469929114119 84.11535132927618 1 0 1
7711 0 1 0 5.722537703269394 89.2441737380245 84.09212817747162 1 0 1
7652 0 1 0 6.4652786623250105 78.17005025833889 83.06977153680181 1 0 1
7662 0 1 0 8.564224650357561 76.98996054695874 83.16977297238648 1 0 1
7651 0 1 0 5.73387438726338 76.95114917716076 83.06035603180956 1 0 1
7663 0 1 0 7.855831253838315 78.2416785864616 83.20653937729956 1 0 1
7601 0 1 0 7.894057023728813 75.78358724942377 83.12319507157773 1 0 1
7599 0 1 0 5.760483954502499 74.48492860997072 83.19254906532328 1 0 1
7600 0 1 0 6.440805227239656 75.73419355411397 83.10945948554578 1 0 1
7610 0 1 0 8.576585743618452 74.51620809369385 83.24886185607325 1 0 1
7646 0 1 0 4.322482936387044 81.89434914624161 83.40328725528057 1 0 1
7635 0 1 0 1.4350075538112228 81.86250832821149 83.39590557576994 1 0 1
7647 0 1 0 3.5858650662777465 83.14037399836813 83.45043933163441 1 0 1
7636 0 1 0 2.164293460653779 83.12853214327545 83.33181969227509 1 0 1
7644 0 1 0 4.3348667893659805 79.44544972118135 83.15085363620756 1 0 1
7645 0 1 0 3.6121333688545394 80.64638167454814 83.34929353014061 1 0 1
7633 0 1 0 1.4725653128979348 79.46642507013543 83.20785236849741 1 0 1
7634 0 1 0 2.172510943857094 80.64043495476224 83.27241568978174 1 0 1
7570 0 1 0 0.0806828563624685 74.51670699686005 82.90079970350955 1 0 1
7724 0 1 0 8.524999238387306 91.74069531450668 84.11481723694634 1 0 1
7667 0 1 0 7.924436225044553 83.08761309352376 83.8317113983941 1 0 1
7654 0 1 0 6.456511787053602 80.6742235810336 83.36303994185903 1 0 1
7655 0 1 0 5.761845955088114 81.88634139730306 83.51483427252087 1 0 1
7656 0 1 0 6.519562341893223 83.10809033067157 83.65917771147382 1 0 1
7653 0 1 0 5.767699831006539 79.41128492320317 83.14781893998037 1 0 1
7666 0 1 0 8.647465387401553 81.87007749858545 83.660517095872 1 0 1
7665 0 1 0 7.8883226845085375 80.65025722836681 83.49201860700579 1 0 1
7664 0 1 0 8.62868823709685 79.4412410266697 83.3916719538377 1 0 1
7648 0 1 0 4.306913791631889 84.32562746316323 83.60000476315776 1 0 1
7650 0 1 0 4.304990083361511 86.79513676924061 83.90374795829969 1 0 1
7649 0 1 0 3.6039451539006877 85.605977226965 83.65196964816087 1 0 1
7638 0 1 0 2.200292409499715 85.57315979896087 83.70370127569146 1 0 1
7637 0 1 0 1.4917221987576115 84.32780380965772 83.54885057464116 1 0 1
7639 0 1 0 1.4318322959708938 86.74804845400311 83.6975659900015 1 0 1
7661 0 1 0 7.907447544417487 87.97750172509008 84.00875592551301 1 0 1
7713 0 1 0 5.723344039642161 91.73724370634493 83.9940939052741 1 0 1
7668 0 1 0 8.586614422381597 84.30344705990376 83.88069421542653 1 0 1
7658 0 1 0 6.476194008798827 85.55355160239806 83.92179586639232 1 0 1
7657 0 1 0 5.8045113131001855 84.32274892409232 83.71927350049044 1 0 1
7670 0 1 0 8.598151939205682 86.72698296399841 84.07090707326341 1 0 1
7669 0 1 0 7.864266920874473 85.49281852846897 84.03585538313307 1 0 1
7659 0 1 0 5.755704773168303 86.77458471741248 83.97414226474537 1 0 1
7641 0 1 0 3.552589812215632 87.98058257086934 84.01014619767649 1 0 1
7702 0 1 0 4.282897763577356 89.26245544835831 84.0486235838243 1 0 1
7693 0 1 0 1.4899544673497769 91.70368770925748 83.6688320056337 1 0 1
7691 0 1 0 1.4721887335215598 89.23554572181838 83.77382433783302 1 0 1
7640 0 1 0 2.1573525459374787 87.96133269734602 83.89967133257977 1 0 1
7703 0 1 0 3.619278845381711 90.52552841706182 84.00197399880471 1 0 1
7692 0 1 0 2.2070406383198766 90.49290323285662 83.88381059181822 1 0 1
7704 0 1 0 4.2816272563808075 91.78480906623716 83.89556148609091 1 0 1
7660 0 1 0 6.484821456067251 87.98928956330313 84.1106336362205 1 0 1
7722 0 1 0 8.589276647490538 89.19041624957266 84.10261150148193 1 0 1
7712 0 1 0 6.451409188446322 90.45851133931697 84.03188195038166 1 0 1
7626 0 1 0 0.0058096918700506215 81.8962065857579 83.40662434653187 1 0 1
7630 0 1 0 0.04133975993961663 86.80879156515955 83.62464546376928 1 0 1
7628 0 1 0 0.03714703672862499 84.32551683835133 83.51535924297885 1 0 1
7684 0 1 0 0.05265262408175884 91.766345880842 83.56309498438776 1 0 1
7622 0 1 0 0.07334506311373373 76.9591226260389 82.89832889103077 1 0 1
7624 0 1 0 0.05551034587451704 79.39126897371672 83.20540851269831 1 0 1
7708 0 1 0 4.2672090208678695 96.68508949441664 84.07632506115696 1 0 1
7706 0 1 0 4.245071883470836 94.15947841811126 84.011528130775 1 0 1
7707 0 1 0 3.572866456739655 95.44485575099068 83.96804395904547 1 0 1
7697 0 1 0 1.4614158113563611 96.69294700693293 83.68193679963355 1 0 1
7705 0 1 0 3.5440620178882187 92.97005041094036 83.85579920192154 1 0 1
7696 0 1 0 2.1855472169092565 95.47231386225783 83.75695286799446 1 0 1
7695 0 1 0 1.4487558498237705 94.25001651068641 83.66114322810796 1 0 1
7694 0 1 0 2.1682825904394885 92.93985201470677 83.7376695879336 1 0 1
7788 0 1 0 8.622194026995244 109.09879947883735 83.93377822380093 1 0 1
7726 0 1 0 8.543849227030002 94.21547963905488 84.22081428238378 1 0 1
7725 0 1 0 7.841794057386852 92.99332257659724 84.11540993297764 1 0 1
7728 0 1 0 8.541154103500507 96.64092315889697 84.22046393969327 1 0 1
7727 0 1 0 7.799221054177625 95.46490578210454 84.25634239093165 1 0 1
7717 0 1 0 5.71326652544892 96.70624754159286 84.21275586751729 1 0 1
7716 0 1 0 6.407260060694524 95.50677639097559 84.17958743072015 1 0 1
7715 0 1 0 5.673757092541733 94.23689596704499 84.10918339190202 1 0 1
7714 0 1 0 6.397078911953807 93.02668339034254 84.03407778422874 1 0 1
7701 0 1 0 3.5931644670340837 100.4145465257334 83.99126283096777 1 0 1
7699 0 1 0 1.444058708973793 99.1803618676597 83.69376406701524 1 0 1
7700 0 1 0 2.198807738378994 100.41253191462941 83.80384778849825 1 0 1
7762 0 1 0 4.307436406136216 101.65856383847783 84.08134076626895 1 0 1
7710 0 1 0 4.277335231753328 99.14614949814842 84.00111098402292 1 0 1
7709 0 1 0 3.586072389323857 97.93070060320137 83.97912520063227 1 0 1
7698 0 1 0 2.1414318740275164 97.980286765546 83.77124942408463 1 0 1
7751 0 1 0 1.44054342333812 101.59547038280324 83.7354313832174 1 0 1
7777 0 1 0 5.757876599426235 109.11226653820549 84.06841719274504 1 0 1
7776 0 1 0 6.445342108330899 107.85910598069859 84.14369719198375 1 0 1
7721 0 1 0 7.902787526952992 100.41845869513703 84.04585651950687 1 0 1
7730 0 1 0 8.60631249564958 99.14987278816437 84.08043748588628 1 0 1
7771 0 1 0 5.742492663812109 101.63628232236591 84.04332388408027 1 0 1
7782 0 1 0 8.633503540142783 101.66909736754239 83.94392686711635 1 0 1
7720 0 1 0 6.469458791126394 100.42433060700654 84.0678791975458 1 0 1
7719 0 1 0 5.726312697206761 99.13293266473944 84.14839302176225 1 0 1
7729 0 1 0 7.875185967817117 97.9144993143553 84.27586172808395 1 0 1
7718 0 1 0 6.434139093171502 97.94158035196905 84.18190528470214 1 0 1
7754 0 1 0 2.148627514775238 105.39263629571515 83.86368214723721 1 0 1
7765 0 1 0 3.563716402311904 105.37488323803183 83.97688443179939 1 0 1
7753 0 1 0 1.4864955916535485 104.11395767130153 83.70381102033815 1 0 1
7763 0 1 0 3.5923788504502823 102.86046345419743 83.94949191078035 1 0 1
7752 0 1 0 2.152939620493129 102.86816212802268 83.81058916504267 1 0 1
7764 0 1 0 4.315551429443019 104.15630537438192 83.99148233164432 1 0 1
7773 0 1 0 5.7041673348257325 104.14791559388726 84.04702259637841 1 0 1
7774 0 1 0 6.423120994353256 105.41090086689968 84.14354036242331 1 0 1
7784 0 1 0 8.557051100698306 104.08379593175236 84.05678979326618 1 0 1
7785 0 1 0 7.8398605429529065 105.38750437088359 84.02504057561893 1 0 1
7772 0 1 0 6.455229470858764 102.8999250671242 84.09366707490695 1 0 1
7783 0 1 0 7.88577577064796 102.87688620377449 84.04734300018605 1 0 1
7756 0 1 0 2.155985161791753 107.82702522639774 83.96124670393455 1 0 1
7757 0 1 0 1.4826662165920925 109.06784363018039 83.9299963658077 1 0 1
7766 0 1 0 4.241879599906823 106.63837321595327 84.01059924286305 1 0 1
7768 0 1 0 4.2855839509008575 109.10807198712344 83.93168657260208 1 0 1
7755 0 1 0 1.4362091651220241 106.56256928352396 83.78561821190051 1 0 1
7769 0 1 0 3.609710650890742 110.38079145144889 83.9982152830271 1 0 1
7767 0 1 0 3.56623359460437 107.89138897006193 83.9776148316839 1 0 1
7758 0 1 0 2.181511546017835 110.3517069396987 83.9947014613003 1 0 1
7786 0 1 0 8.561085924797817 106.5897156951767 84.0534765459122 1 0 1
7775 0 1 0 5.677213651879211 106.629900678664 84.17235034172364 1 0 1
7778 0 1 0 6.49885763632717 110.32105103979333 83.90137381519675 1 0 1
7789 0 1 0 7.909246214986707 110.3085397708614 83.86214372379584 1 0 1
7787 0 1 0 7.825328615740376 107.9176654115627 83.97345664292666 1 0 1
7748 0 1 0 0.059120470260982876 109.12522640141549 83.81651593554291 1 0 1
7746 0 1 0 0.026922917687252565 106.58749602129627 83.71604820339235 1 0 1
7688 0 1 0 0.058655265438178075 96.69801396535121 83.62757312922395 1 0 1
7690 0 1 0 0.03760088273015048 99.15679163655709 83.58433414762511 1 0 1
7742 0 1 0 0.07299922204430527 101.6245437942341 83.46516560963609 1 0 1
7686 0 1 0 0.057476891425376056 94.25898442773708 83.50155903413763 1 0 1
7744 0 1 0 0.04646009077755822 104.08939814151654 83.59106631819431 1 0 1
7812 0 1 0 2.1803552244555435 115.28523910483237 83.70572000076021 1 0 1
7811 0 1 0 1.4153234335631537 114.04002098218844 83.86163337261253 1 0 1
7823 0 1 0 3.625323557251834 115.30056535801712 83.68720092942011 1 0 1
7770 0 1 0 4.282554726702526 111.56767828130796 83.88291874624345 1 0 1
7822 0 1 0 4.278786859578553 114.0251224555076 83.75600460046235 1 0 1
7761 0 1 0 3.5928539810373454 112.82691941813867 83.83081087510321 1 0 1
7760 0 1 0 2.160894672527903 112.79204957010936 83.85676079265428 1 0 1
7759 0 1 0 1.428720818897096 111.56152376377408 83.94873728097927 1 0 1
7904 0 1 0 8.542765019119278 128.8482370475363 82.74756617902123 1 0 1
7903 0 1 0 7.87214910661576 127.60083351408541 82.79382376595716 1 0 1
7832 0 1 0 6.481133416340555 115.24982801083942 83.45325893383647 1 0 1