LAMMPS (4 Feb 2025)
OMP_NUM_THREADS environment is not set. Defaulting to 1 thread. (src/comm.cpp:99)
  using 1 OpenMP thread(s) per MPI task
# LAMMPS script for running NVT simulation

units       metal                   # Energies in eV, distances in A
dimension   3
boundary    p p p
atom_style  full

bond_style   zero
angle_style  zero
pair_style   lj/cut/coul/long 9.0
kspace_style pppm 1.0e-5
read_data    ../equi_final.lammps-data
Reading data file ...
  orthogonal box = (0 0 0) to (154.008 148.19427 151.07317)
  10 by 8 by 8 MPI processor grid
  reading atoms ...
  18999 atoms
  reading velocities ...
  18999 velocities
  scanning bonds ...
  2 = max bonds/atom
  scanning angles ...
  1 = max angles/atom
  orthogonal box = (0 0 0) to (154.008 148.19427 151.07317)
  10 by 8 by 8 MPI processor grid
  reading bonds ...
  6906 bonds
  reading angles ...
  3453 angles
Finding 1-2 1-3 1-4 neighbors ...
  special bond factors lj:    0        0        0       
  special bond factors coul:  0        0        0       
     2 = max # of 1-2 neighbors
     1 = max # of 1-3 neighbors
     1 = max # of 1-4 neighbors
     2 = max # of special neighbors
  special bonds CPU = 6.097 seconds
  read_data CPU = 6.356 seconds

pair_coeff   1 1 0.0      1.0        # Ignore C-C
pair_coeff   1 2 0.0      1.0        # Ignore C-H
pair_coeff   1 3 0.004551 3.367      # LJ for C-O (0.4391 kJ/mol = 0.004551 eV)
pair_coeff   2 2 0.0      1.0        # SPC/E H-H
pair_coeff   2 3 0.0      1.0        # SPC/E H-O
pair_coeff   3 3 0.006735 3.166      # SPC/E O-O (0.1553 kcal/mol = 0.006735 eV)

set type 2 charge 0.4238            # SPC/E H
Setting atom values ...
  6906 settings made for charge
set type 3 charge -0.8476           # SPC/E O
Setting atom values ...
  3453 settings made for charge

variable t equal step

group graphene type 1
8640 atoms in group graphene
group H2O type 2 3
10359 atoms in group H2O

######### NVT production for 10 ns #############

thermo 10000
dump DUMP0 all atom 100 nvt_prod_0.lammpstrj
timestep 0.001
fix rigid_bonds H2O shake 0.0001 10 10000 b 1 a 1
Finding SHAKE clusters ...
       0 = # of size 2 clusters
       0 = # of size 3 clusters
       0 = # of size 4 clusters
    3453 = # of frozen angles
  find clusters CPU = 0.165 seconds
fix NVT1 H2O nvt temp 300 300 $(100.0*dt)
fix NVT1 H2O nvt temp 300 300 0.10000000000000000555
run 2000000
PPPM initialization ...
  using 12-bit tables for long-range coulomb (src/kspace.cpp:342)
  G vector (1/distance) = 0.29613742
  grid = 90 90 90
  stencil order = 5
  estimated absolute RMS force accuracy = 0.00016052161
  estimated relative force accuracy = 1.1147609e-05
  using double precision KISS FFT
  3d grid and FFT values/proc = 5184 1350
Generated 0 of 3 mixed pair_coeff terms from geometric mixing rule
Neighbor list info ...
  update: every = 1 steps, delay = 0 steps, check = yes
  max neighbors/atom: 2000, page size: 100000
  master list distance cutoff = 11
  ghost atom cutoff = 11
  binsize = 5.5, bins = 29 27 28
  1 neighbor lists, perpetual/occasional/extra = 1 0 0
  (1) pair lj/cut/coul/long, perpetual
      attributes: half, newton on
      pair build: half/bin/newton
      stencil: half/bin/3d
      bin: standard
SHAKE stats (type/ave/delta/count) on step 0
Bond:   1   1         1.37306e-06     6906
Angle:  1   109.47    0.00010271      3453
Per MPI rank memory allocation (min/avg/max) = 8.05 | 8.135 | 8.944 Mbytes
   Step          Temp          E_pair         E_mol          TotEng         Press     
         0   133.14084     -1615.9066      0             -1348.3802     -6.1283804    
SHAKE stats (type/ave/delta/count) on step 10000
Bond:   1   1         1.20623e-06     6906
Angle:  1   109.47    0.000100331     3453
     10000   132.97264     -1620.01        0             -1352.8215     -0.65077842   
SHAKE stats (type/ave/delta/count) on step 20000
Bond:   1   1         1.15683e-06     6906
Angle:  1   109.47    9.55847e-05     3453
     20000   132.50491     -1616.2101      0             -1349.9615     -20.925983    
SHAKE stats (type/ave/delta/count) on step 30000
Bond:   1   1         1.20223e-06     6906
Angle:  1   109.47    0.000103081     3453
     30000   133.81282     -1612.1493      0             -1343.2726     -16.611893    
SHAKE stats (type/ave/delta/count) on step 40000
Bond:   1   1         1.37689e-06     6906
Angle:  1   109.47    9.33018e-05     3453
     40000   133.68274     -1607.4413      0             -1338.826      -23.727141    
SHAKE stats (type/ave/delta/count) on step 50000
Bond:   1   1         1.35512e-06     6906
Angle:  1   109.47    9.50807e-05     3453
     50000   131.92142     -1619.5096      0             -1354.4334     -9.7000845    
SHAKE stats (type/ave/delta/count) on step 60000
Bond:   1   1         1.44412e-06     6906
Angle:  1   109.47    9.76695e-05     3453
     60000   134.17038     -1615.8899      0             -1346.2948     -0.9686462    
SHAKE stats (type/ave/delta/count) on step 70000
Bond:   1   1         1.19884e-06     6906
Angle:  1   109.47    0.00012313      3453
     70000   131.69864     -1613.6817      0             -1349.0531     -8.4065834    
SHAKE stats (type/ave/delta/count) on step 80000
Bond:   1   1         1.09033e-06     6906
Angle:  1   109.47    9.00628e-05     3453
     80000   134.32423     -1610.61        0             -1340.7058     -6.100566     
SHAKE stats (type/ave/delta/count) on step 90000
Bond:   1   1         1.3157e-06      6906
Angle:  1   109.47    0.000102935     3453
     90000   134.79958     -1608.5017      0             -1337.6423     -2.554762     
SHAKE stats (type/ave/delta/count) on step 100000
Bond:   1   1         1.50631e-06     6906
Angle:  1   109.47    0.000110227     3453
    100000   132.64112     -1611.4614      0             -1344.9391     -1.8081332    
SHAKE stats (type/ave/delta/count) on step 110000
Bond:   1   1         1.26801e-06     6906
Angle:  1   109.47    9.64186e-05     3453
    110000   133.20191     -1611.1614      0             -1343.5123     -4.4900543    
SHAKE stats (type/ave/delta/count) on step 120000
Bond:   1   1         1.60803e-06     6906
Angle:  1   109.47    0.000116752     3453
    120000   135.26092     -1603.6768      0             -1331.8905     -21.249657    
SHAKE stats (type/ave/delta/count) on step 130000
Bond:   1   1         1.19106e-06     6906
Angle:  1   109.47    0.000104869     3453
    130000   134.36836     -1608.0036      0             -1338.0107     -9.811208     
SHAKE stats (type/ave/delta/count) on step 140000
Bond:   1   1         1.48027e-06     6906
Angle:  1   109.47    0.000102356     3453
    140000   134.12398     -1616.8696      0             -1347.3677     -6.3224276    
SHAKE stats (type/ave/delta/count) on step 150000
Bond:   1   1         1.46571e-06     6906
Angle:  1   109.47    9.69399e-05     3453
    150000   134.00889     -1607.5956      0             -1338.325      -19.655417    
SHAKE stats (type/ave/delta/count) on step 160000
Bond:   1   1         1.32107e-06     6906
Angle:  1   109.47    0.000104518     3453
    160000   130.68335     -1611.1896      0             -1348.6011     -9.9572638    
SHAKE stats (type/ave/delta/count) on step 170000
Bond:   1   1         1.35312e-06     6906
Angle:  1   109.47    0.000101241     3453
    170000   130.45687     -1605.6312      0             -1343.4978     -7.2573413    
SHAKE stats (type/ave/delta/count) on step 180000
Bond:   1   1         1.23508e-06     6906
Angle:  1   109.47    9.22639e-05     3453
    180000   132.08752     -1616.6092      0             -1351.1992     -0.41093902   
SHAKE stats (type/ave/delta/count) on step 190000
Bond:   1   1         1.28461e-06     6906
Angle:  1   109.47    9.43428e-05     3453
    190000   133.03555     -1608.4084      0             -1341.0935     -6.2410821    
SHAKE stats (type/ave/delta/count) on step 200000
Bond:   1   1         1.38262e-06     6906
Angle:  1   109.47    0.00010003      3453
    200000   132.95638     -1604.8671      0             -1337.7114     -7.9653991    
SHAKE stats (type/ave/delta/count) on step 210000
Bond:   1   1         1.16818e-06     6906
Angle:  1   109.47    8.95806e-05     3453
    210000   133.63935     -1613.8663      0             -1345.3382      0.86409093   
SHAKE stats (type/ave/delta/count) on step 220000
Bond:   1   1         1.44508e-06     6906
Angle:  1   109.47    0.000104318     3453
    220000   133.11422     -1614.852       0             -1347.379      -15.322462    
SHAKE stats (type/ave/delta/count) on step 230000
Bond:   1   1         1.57651e-06     6906
Angle:  1   109.47    9.78774e-05     3453
    230000   132.32676     -1609.0771      0             -1343.1864     -24.679507    
SHAKE stats (type/ave/delta/count) on step 240000
Bond:   1   1         1.1679e-06      6906
Angle:  1   109.47    9.32692e-05     3453
    240000   133.26641     -1612.4301      0             -1344.6513     -11.889747    
SHAKE stats (type/ave/delta/count) on step 250000
Bond:   1   1         1.25047e-06     6906
Angle:  1   109.47    9.33404e-05     3453
    250000   132.57508     -1606.8501      0             -1340.4605     -9.3882954    
SHAKE stats (type/ave/delta/count) on step 260000
Bond:   1   1         1.42907e-06     6906
Angle:  1   109.47    9.84185e-05     3453
    260000   132.35991     -1607.7358      0             -1341.7785     -4.5262137    
SHAKE stats (type/ave/delta/count) on step 270000
Bond:   1   1         1.477e-06       6906
Angle:  1   109.47    0.000108042     3453
    270000   131.3969      -1611.6648      0             -1347.6426     -1.663207     
SHAKE stats (type/ave/delta/count) on step 280000
Bond:   1   1         1.17635e-06     6906
Angle:  1   109.47    9.24167e-05     3453
    280000   132.78533     -1610.7999      0             -1343.9879     -2.8094301    
SHAKE stats (type/ave/delta/count) on step 290000
Bond:   1   1         1.63198e-06     6906
Angle:  1   109.47    0.000116728     3453
    290000   136.25537     -1617.4903      0             -1343.7057     -8.948883     
SHAKE stats (type/ave/delta/count) on step 300000
Bond:   1   1         1.21737e-06     6906
Angle:  1   109.47    9.31219e-05     3453
    300000   133.54044     -1610.4537      0             -1342.1243     -3.4596976    
SHAKE stats (type/ave/delta/count) on step 310000
Bond:   1   1         1.33038e-06     6906
Angle:  1   109.47    9.48366e-05     3453
    310000   131.46457     -1609.8646      0             -1345.7064      2.9754921    
SHAKE stats (type/ave/delta/count) on step 320000
Bond:   1   1         1.20633e-06     6906
Angle:  1   109.47    9.91018e-05     3453
    320000   132.36264     -1612.5395      0             -1346.5768     -1.5899117    
SHAKE stats (type/ave/delta/count) on step 330000
Bond:   1   1         1.10995e-06     6906
Angle:  1   109.47    0.000103405     3453
    330000   131.71241     -1608.8711      0             -1344.2149     -11.130048    
SHAKE stats (type/ave/delta/count) on step 340000
Bond:   1   1         1.18115e-06     6906
Angle:  1   109.47    9.36039e-05     3453
    340000   130.98833     -1602.0172      0             -1338.816      -9.6458929    
SHAKE stats (type/ave/delta/count) on step 350000
Bond:   1   1         1.31881e-06     6906
Angle:  1   109.47    0.000103094     3453
    350000   132.8656      -1601.6586      0             -1334.6853     -17.215288    
SHAKE stats (type/ave/delta/count) on step 360000
Bond:   1   1         1.12616e-06     6906
Angle:  1   109.47    9.24766e-05     3453
    360000   132.88203     -1612.7891      0             -1345.7827     -0.012397075  
SHAKE stats (type/ave/delta/count) on step 370000
Bond:   1   1         1.31257e-06     6906
Angle:  1   109.47    0.000102144     3453
    370000   133.42518     -1604.6325      0             -1336.5348     -5.6334748    
SHAKE stats (type/ave/delta/count) on step 380000
Bond:   1   1         1.27191e-06     6906
Angle:  1   109.47    0.000104599     3453
    380000   133.97245     -1611.6268      0             -1342.4294     -12.565704    
SHAKE stats (type/ave/delta/count) on step 390000
Bond:   1   1         1.24698e-06     6906
Angle:  1   109.47    0.000104427     3453
    390000   132.80124     -1613.6984      0             -1346.8543     -6.8825002    
SHAKE stats (type/ave/delta/count) on step 400000
Bond:   1   1         1.49689e-06     6906
Angle:  1   109.47    0.000109646     3453
    400000   133.71338     -1613.9684      0             -1345.2916     -3.1443806    
SHAKE stats (type/ave/delta/count) on step 410000
Bond:   1   1         1.14945e-06     6906
Angle:  1   109.47    9.00358e-05     3453
    410000   133.40756     -1608.0208      0             -1339.9584     -21.424881    
SHAKE stats (type/ave/delta/count) on step 420000
Bond:   1   1         1.37895e-06     6906
Angle:  1   109.47    9.22704e-05     3453
    420000   133.81626     -1612.5048      0             -1343.6212     -15.550066    
SHAKE stats (type/ave/delta/count) on step 430000
Bond:   1   1         1.2474e-06      6906
Angle:  1   109.47    9.88283e-05     3453
    430000   131.62153     -1605.2078      0             -1340.7342     -8.0579293    
SHAKE stats (type/ave/delta/count) on step 440000
Bond:   1   1         1.16424e-06     6906
Angle:  1   109.47    0.000101587     3453
    440000   132.91227     -1608.7658      0             -1341.6987     -6.004482     
SHAKE stats (type/ave/delta/count) on step 450000
Bond:   1   1         1.01642e-06     6906
Angle:  1   109.47    9.32549e-05     3453
    450000   130.64353     -1606.3658      0             -1343.8573     -12.902176    
SHAKE stats (type/ave/delta/count) on step 460000
Bond:   1   1         1.20737e-06     6906
Angle:  1   109.47    0.000102109     3453
    460000   134.1173      -1618.4406      0             -1348.9522      2.6905327    
SHAKE stats (type/ave/delta/count) on step 470000
Bond:   1   1         1.24637e-06     6906
Angle:  1   109.47    9.78381e-05     3453
    470000   132.14203     -1615.8929      0             -1350.3735      3.943903     
SHAKE stats (type/ave/delta/count) on step 480000
Bond:   1   1         1.30854e-06     6906
Angle:  1   109.47    9.80693e-05     3453
    480000   133.1981      -1615.1909      0             -1347.5495     -2.7649087    
SHAKE stats (type/ave/delta/count) on step 490000
Bond:   1   1         1.30202e-06     6906
Angle:  1   109.47    0.000124319     3453
    490000   134.55227     -1608.924       0             -1338.5615     -2.772369     
SHAKE stats (type/ave/delta/count) on step 500000
Bond:   1   1         1.43302e-06     6906
Angle:  1   109.47    0.000110141     3453
    500000   133.46394     -1613.8779      0             -1345.7023      1.6906354    
SHAKE stats (type/ave/delta/count) on step 510000
Bond:   1   1         1.77624e-06     6906
Angle:  1   109.47    0.000124231     3453
    510000   130.6719      -1614.7361      0             -1352.1707     -9.1289518    
SHAKE stats (type/ave/delta/count) on step 520000
Bond:   1   1         1.20295e-06     6906
Angle:  1   109.47    9.27676e-05     3453
    520000   133.1078      -1614.7992      0             -1347.3392     -10.933226    
SHAKE stats (type/ave/delta/count) on step 530000
Bond:   1   1         1.24211e-06     6906
Angle:  1   109.47    0.000100008     3453
    530000   133.55346     -1607.9664      0             -1339.6109     -1.7745859    
SHAKE stats (type/ave/delta/count) on step 540000
Bond:   1   1         1.52877e-06     6906
Angle:  1   109.47    0.000105878     3453
    540000   133.04739     -1616.6869      0             -1349.3483     -15.035027    
SHAKE stats (type/ave/delta/count) on step 550000
Bond:   1   1         1.23397e-06     6906
Angle:  1   109.47    9.47102e-05     3453
    550000   135.42486     -1608.9653      0             -1336.8495     -14.160877    
SHAKE stats (type/ave/delta/count) on step 560000
Bond:   1   1         1.33027e-06     6906
Angle:  1   109.47    9.80268e-05     3453
    560000   131.50811     -1612.3867      0             -1348.141      -5.4101049    
SHAKE stats (type/ave/delta/count) on step 570000
Bond:   1   1         1.37814e-06     6906
Angle:  1   109.47    0.000107392     3453
    570000   131.24077     -1613.1888      0             -1349.4803     -17.014659    
SHAKE stats (type/ave/delta/count) on step 580000
Bond:   1   1         1.32595e-06     6906
Angle:  1   109.47    9.54213e-05     3453
    580000   131.82139     -1607.1763      0             -1342.3011     -18.801653    
SHAKE stats (type/ave/delta/count) on step 590000
Bond:   1   1         1.08447e-06     6906
Angle:  1   109.47    0.000100032     3453
    590000   135.49628     -1612.4202      0             -1340.1608     -6.0949787    
SHAKE stats (type/ave/delta/count) on step 600000
Bond:   1   1         1.15092e-06     6906
Angle:  1   109.47    9.1772e-05      3453
    600000   134.59413     -1613.4487      0             -1343.0021     -7.3120932    
SHAKE stats (type/ave/delta/count) on step 610000
Bond:   1   1         1.71934e-06     6906
Angle:  1   109.47    0.00011059      3453
    610000   131.16175     -1620.6667      0             -1357.117      -9.9257252    
SHAKE stats (type/ave/delta/count) on step 620000
Bond:   1   1         1.28821e-06     6906
Angle:  1   109.47    0.000100159     3453
    620000   133.63541     -1615.5753      0             -1347.0551     -16.48212     
SHAKE stats (type/ave/delta/count) on step 630000
Bond:   1   1         1.24212e-06     6906
Angle:  1   109.47    9.79777e-05     3453
    630000   133.84129     -1609.2026      0             -1340.2688     -5.9555024    
SHAKE stats (type/ave/delta/count) on step 640000
Bond:   1   1         1.4688e-06      6906
Angle:  1   109.47    9.62257e-05     3453
    640000   130.36197     -1604.3351      0             -1342.3925     -14.509822    
SHAKE stats (type/ave/delta/count) on step 650000
Bond:   1   1         1.52121e-06     6906
Angle:  1   109.47    0.000128054     3453
    650000   133.53944     -1611.5074      0             -1343.18       -0.051052293  
SHAKE stats (type/ave/delta/count) on step 660000
Bond:   1   1         1.17592e-06     6906
Angle:  1   109.47    9.46259e-05     3453
    660000   133.78578     -1610.5293      0             -1341.7069     -0.71239338   
SHAKE stats (type/ave/delta/count) on step 670000
Bond:   1   1         1.14959e-06     6906
Angle:  1   109.47    9.4259e-05      3453
    670000   133.9315      -1615.6173      0             -1346.5022     -9.7836352    
SHAKE stats (type/ave/delta/count) on step 680000
Bond:   1   1         1.53019e-06     6906
Angle:  1   109.47    0.000101096     3453
    680000   133.62118     -1606.3735      0             -1337.8819     -19.190413    
SHAKE stats (type/ave/delta/count) on step 690000
Bond:   1   1         1.74462e-06     6906
Angle:  1   109.47    0.000136733     3453
    690000   134.30134     -1615.4508      0             -1345.5926     -5.9658999    
SHAKE stats (type/ave/delta/count) on step 700000
Bond:   1   1         1.23918e-06     6906
Angle:  1   109.47    9.37376e-05     3453
    700000   133.54437     -1614.7793      0             -1346.4421     -12.04102     
SHAKE stats (type/ave/delta/count) on step 710000
Bond:   1   1         1.42081e-06     6906
Angle:  1   109.47    9.65436e-05     3453
    710000   132.95312     -1609.2942      0             -1342.145      -17.529098    
SHAKE stats (type/ave/delta/count) on step 720000
Bond:   1   1         1.30765e-06     6906
Angle:  1   109.47    9.70419e-05     3453
    720000   130.4257      -1614.2441      0             -1352.1733     -6.6616863    
SHAKE stats (type/ave/delta/count) on step 730000
Bond:   1   1         1.22812e-06     6906
Angle:  1   109.47    0.000110272     3453
    730000   132.44673     -1609.3412      0             -1343.2095      0.55583192   
SHAKE stats (type/ave/delta/count) on step 740000
Bond:   1   1         1.24272e-06     6906
Angle:  1   109.47    9.09394e-05     3453
    740000   136.47865     -1608.1143      0             -1333.8811     -6.2087152    
SHAKE stats (type/ave/delta/count) on step 750000
Bond:   1   1         1.57185e-06     6906
Angle:  1   109.47    9.56518e-05     3453
    750000   133.48583     -1618.3741      0             -1350.1545      2.7724433    
SHAKE stats (type/ave/delta/count) on step 760000
Bond:   1   1         1.23853e-06     6906
Angle:  1   109.47    9.16528e-05     3453
    760000   132.40583     -1619.1719      0             -1353.1224     -13.338365    
SHAKE stats (type/ave/delta/count) on step 770000
Bond:   1   1         1.3585e-06      6906
Angle:  1   109.47    9.1119e-05      3453
    770000   134.27509     -1610.6902      0             -1340.8847     -8.2249136    
SHAKE stats (type/ave/delta/count) on step 780000
Bond:   1   1         1.27513e-06     6906
Angle:  1   109.47    0.000110423     3453
    780000   132.13046     -1622.439       0             -1356.9428     -20.908416    
SHAKE stats (type/ave/delta/count) on step 790000
Bond:   1   1         1.29043e-06     6906
Angle:  1   109.47    0.000110805     3453
    790000   134.48832     -1608.9047      0             -1338.6707     -20.311487    
SHAKE stats (type/ave/delta/count) on step 800000
Bond:   1   1         1.27493e-06     6906
Angle:  1   109.47    0.00010976      3453
    800000   134.12512     -1612.6742      0             -1343.17       -19.524683    
SHAKE stats (type/ave/delta/count) on step 810000
Bond:   1   1         1.71347e-06     6906
Angle:  1   109.47    0.000133388     3453
    810000   132.87519     -1611.6752      0             -1344.6826     -9.0499222    
SHAKE stats (type/ave/delta/count) on step 820000
Bond:   1   1         1.24403e-06     6906
Angle:  1   109.47    9.63014e-05     3453
    820000   133.15991     -1616.1385      0             -1348.5738     -8.7041694    
SHAKE stats (type/ave/delta/count) on step 830000
Bond:   1   1         1.28901e-06     6906
Angle:  1   109.47    0.000104176     3453
    830000   134.87718     -1610.9771      0             -1339.9618     -13.202298    
SHAKE stats (type/ave/delta/count) on step 840000
Bond:   1   1         1.31599e-06     6906
Angle:  1   109.47    9.18086e-05     3453
    840000   131.28681     -1611.0792      0             -1347.2782     -5.7067971    
SHAKE stats (type/ave/delta/count) on step 850000
Bond:   1   1         1.21602e-06     6906
Angle:  1   109.47    0.000105613     3453
    850000   131.47058     -1604.6113      0             -1340.4411     -0.54246525   
SHAKE stats (type/ave/delta/count) on step 860000
Bond:   1   1         1.44649e-06     6906
Angle:  1   109.47    0.000133483     3453
    860000   132.20304     -1601.7672      0             -1336.1252     -14.487376    
SHAKE stats (type/ave/delta/count) on step 870000
Bond:   1   1         1.52857e-06     6906
Angle:  1   109.47    0.000118842     3453
    870000   135.43167     -1611.4133      0             -1339.2838      1.2120803    
SHAKE stats (type/ave/delta/count) on step 880000
Bond:   1   1         1.28104e-06     6906
Angle:  1   109.47    0.000108029     3453
    880000   134.7332      -1613.4144      0             -1342.6884      2.5388442    
SHAKE stats (type/ave/delta/count) on step 890000
Bond:   1   1         1.17555e-06     6906
Angle:  1   109.47    9.55779e-05     3453
    890000   133.77237     -1611.3895      0             -1342.5941     -2.7472452    
SHAKE stats (type/ave/delta/count) on step 900000
Bond:   1   1         1.24425e-06     6906
Angle:  1   109.47    0.000102069     3453
    900000   133.45754     -1610.2645      0             -1342.1018     -9.842379     
SHAKE stats (type/ave/delta/count) on step 910000
Bond:   1   1         1.70055e-06     6906
Angle:  1   109.47    0.000126852     3453
    910000   135.15845     -1605.839       0             -1334.2586     -18.083598    
SHAKE stats (type/ave/delta/count) on step 920000
Bond:   1   1         1.31363e-06     6906
Angle:  1   109.47    0.000105856     3453
    920000   132.16875     -1605.3582      0             -1339.7851     -20.701183    
SHAKE stats (type/ave/delta/count) on step 930000
Bond:   1   1         1.43821e-06     6906
Angle:  1   109.47    0.000104495     3453
    930000   132.51498     -1611.8779      0             -1345.6091      1.6719984    
SHAKE stats (type/ave/delta/count) on step 940000
Bond:   1   1         1.27196e-06     6906
Angle:  1   109.47    9.52274e-05     3453
    940000   133.96564     -1614.0092      0             -1344.8255     -17.19552     
SHAKE stats (type/ave/delta/count) on step 950000
Bond:   1   1         1.46811e-06     6906
Angle:  1   109.47    0.000113425     3453
    950000   134.3194      -1611.7944      0             -1341.8998     -12.379412    
SHAKE stats (type/ave/delta/count) on step 960000
Bond:   1   1         1.12646e-06     6906
Angle:  1   109.47    8.94902e-05     3453
    960000   132.84552     -1614.4593      0             -1347.5263     -9.4933591    
SHAKE stats (type/ave/delta/count) on step 970000
Bond:   1   1         1.35688e-06     6906
Angle:  1   109.47    9.96905e-05     3453
    970000   135.17436     -1606.2912      0             -1334.6787     -9.4351734    
SHAKE stats (type/ave/delta/count) on step 980000
Bond:   1   1         1.58297e-06     6906
Angle:  1   109.47    0.00010035      3453
    980000   133.306       -1617.4823      0             -1349.624      -16.564318    
SHAKE stats (type/ave/delta/count) on step 990000
Bond:   1   1         1.3408e-06      6906
Angle:  1   109.47    8.82023e-05     3453
    990000   133.59048     -1609.1723      0             -1340.7424     -17.053581    
SHAKE stats (type/ave/delta/count) on step 1000000
Bond:   1   1         1.2896e-06      6906
Angle:  1   109.47    9.15077e-05     3453
   1000000   134.46169     -1616.3259      0             -1346.1454     -17.412746    
SHAKE stats (type/ave/delta/count) on step 1010000
Bond:   1   1         1.32612e-06     6906
Angle:  1   109.47    9.77076e-05     3453
   1010000   133.51991     -1607.6532      0             -1339.3651     -3.106044     
SHAKE stats (type/ave/delta/count) on step 1020000
Bond:   1   1         1.3967e-06      6906
Angle:  1   109.47    0.000106749     3453
   1020000   134.42233     -1607.5888      0             -1337.4875     -8.4350978    
SHAKE stats (type/ave/delta/count) on step 1030000
Bond:   1   1         1.11857e-06     6906
Angle:  1   109.47    0.000136893     3453
   1030000   135.49666     -1610.0897      0             -1337.8296     -7.9198092    
SHAKE stats (type/ave/delta/count) on step 1040000
Bond:   1   1         1.37699e-06     6906
Angle:  1   109.47    9.81298e-05     3453
   1040000   135.29204     -1613.4542      0             -1341.6053     -7.6154438    
SHAKE stats (type/ave/delta/count) on step 1050000
Bond:   1   1         1.41873e-06     6906
Angle:  1   109.47    0.000103723     3453
   1050000   133.97094     -1610.2411      0             -1341.0468     -5.7622087    
SHAKE stats (type/ave/delta/count) on step 1060000
Bond:   1   1         1.2573e-06      6906
Angle:  1   109.47    9.50572e-05     3453
   1060000   133.69446     -1617.4559      0             -1348.8171     -5.0764144    
SHAKE stats (type/ave/delta/count) on step 1070000
Bond:   1   1         1.68257e-06     6906
Angle:  1   109.47    0.000124452     3453
   1070000   134.59881     -1603.4289      0             -1332.9729     -9.0073021    
SHAKE stats (type/ave/delta/count) on step 1080000
Bond:   1   1         1.32531e-06     6906
Angle:  1   109.47    0.000106795     3453
   1080000   131.09622     -1618.2557      0             -1354.8377      0.85959569   
SHAKE stats (type/ave/delta/count) on step 1090000
Bond:   1   1         1.27888e-06     6906
Angle:  1   109.47    9.48827e-05     3453
   1090000   133.55656     -1613.2365      0             -1344.8748      3.7627257    
SHAKE stats (type/ave/delta/count) on step 1100000
Bond:   1   1         1.1811e-06      6906
Angle:  1   109.47    9.13638e-05     3453
   1100000   130.92963     -1610.0979      0             -1347.0146     -13.760497    
SHAKE stats (type/ave/delta/count) on step 1110000
Bond:   1   1         1.15428e-06     6906
Angle:  1   109.47    0.00010104      3453
   1110000   130.44959     -1613.5903      0             -1351.4716      4.8391771    
SHAKE stats (type/ave/delta/count) on step 1120000
Bond:   1   1         1.4202e-06      6906
Angle:  1   109.47    9.75745e-05     3453
   1120000   133.03828     -1612.5805      0             -1345.2602     -4.830586     
SHAKE stats (type/ave/delta/count) on step 1130000
Bond:   1   1         1.50566e-06     6906
Angle:  1   109.47    0.000108052     3453
   1130000   136.18747     -1613.6616      0             -1340.0135     -6.904067     
SHAKE stats (type/ave/delta/count) on step 1140000
Bond:   1   1         1.23574e-06     6906
Angle:  1   109.47    9.74573e-05     3453
   1140000   133.21781     -1607.5359      0             -1339.8549     -9.06872      
SHAKE stats (type/ave/delta/count) on step 1150000
Bond:   1   1         1.27862e-06     6906
Angle:  1   109.47    0.00010529      3453
   1150000   134.84555     -1607.867       0             -1336.9152     -2.4019669    
SHAKE stats (type/ave/delta/count) on step 1160000
Bond:   1   1         1.41941e-06     6906
Angle:  1   109.47    9.95053e-05     3453
   1160000   136.55173     -1608.4266      0             -1334.0465     -11.798442    
SHAKE stats (type/ave/delta/count) on step 1170000
Bond:   1   1         1.40643e-06     6906
Angle:  1   109.47    9.81985e-05     3453
   1170000   132.70133     -1615.5615      0             -1348.9182     -9.9767706    
SHAKE stats (type/ave/delta/count) on step 1180000
Bond:   1   1         2.18889e-06     6906
Angle:  1   109.47    0.00015573      3453
   1180000   134.882       -1614.2778      0             -1343.2528     -10.09983     
SHAKE stats (type/ave/delta/count) on step 1190000
Bond:   1   1         1.32022e-06     6906
Angle:  1   109.47    0.000122721     3453
   1190000   134.31238     -1610.3716      0             -1340.4912      0.13390569   
SHAKE stats (type/ave/delta/count) on step 1200000
Bond:   1   1         1.26703e-06     6906
Angle:  1   109.47    9.46505e-05     3453
   1200000   132.09798     -1606.8153      0             -1341.3844     -10.494568    
SHAKE stats (type/ave/delta/count) on step 1210000
Bond:   1   1         1.34632e-06     6906
Angle:  1   109.47    0.000102023     3453
   1210000   135.15142     -1618.6356      0             -1347.0692     -24.264786    
SHAKE stats (type/ave/delta/count) on step 1220000
Bond:   1   1         1.30243e-06     6906
Angle:  1   109.47    9.45996e-05     3453
   1220000   131.6132      -1616.7037      0             -1352.2468     -16.821598    
SHAKE stats (type/ave/delta/count) on step 1230000
Bond:   1   1         1.20009e-06     6906
Angle:  1   109.47    0.000115388     3453
   1230000   134.71317     -1612.0315      0             -1341.3458     -14.084241    
SHAKE stats (type/ave/delta/count) on step 1240000
Bond:   1   1         1.1573e-06      6906
Angle:  1   109.47    0.000104839     3453
   1240000   133.76862     -1613.7776      0             -1344.9898     -7.3689813    
SHAKE stats (type/ave/delta/count) on step 1250000
Bond:   1   1         1.06306e-06     6906
Angle:  1   109.47    9.98913e-05     3453
   1250000   135.08817     -1610.3824      0             -1338.9431     -13.489789    
SHAKE stats (type/ave/delta/count) on step 1260000
Bond:   1   1         1.56387e-06     6906
Angle:  1   109.47    9.65734e-05     3453
   1260000   136.37825     -1603.8185      0             -1329.787      -1.7817086    
SHAKE stats (type/ave/delta/count) on step 1270000
Bond:   1   1         1.28348e-06     6906
Angle:  1   109.47    9.58765e-05     3453
   1270000   131.7318      -1606.5073      0             -1341.8122     -12.64586     
SHAKE stats (type/ave/delta/count) on step 1280000
Bond:   1   1         1.45775e-06     6906
Angle:  1   109.47    0.000105237     3453
   1280000   134.11218     -1605.8363      0             -1336.3582     -4.0210613    
SHAKE stats (type/ave/delta/count) on step 1290000
Bond:   1   1         1.17127e-06     6906
Angle:  1   109.47    9.49208e-05     3453
   1290000   133.15092     -1610.8635      0             -1343.3169     -7.5735704    
SHAKE stats (type/ave/delta/count) on step 1300000
Bond:   1   1         1.34624e-06     6906
Angle:  1   109.47    0.000116454     3453
   1300000   132.653       -1608.9561      0             -1342.4099     -10.875003    
SHAKE stats (type/ave/delta/count) on step 1310000
Bond:   1   1         1.21983e-06     6906
Angle:  1   109.47    9.51166e-05     3453
   1310000   133.39666     -1610.6338      0             -1342.5933     -9.3739323    
SHAKE stats (type/ave/delta/count) on step 1320000
Bond:   1   1         1.17614e-06     6906
Angle:  1   109.47    9.52418e-05     3453
   1320000   133.48054     -1607.3956      0             -1339.1866      6.2683133    
SHAKE stats (type/ave/delta/count) on step 1330000
Bond:   1   1         1.1702e-06      6906
Angle:  1   109.47    0.00010392      3453
   1330000   132.57902     -1616.512       0             -1350.1145     -3.5423531    
SHAKE stats (type/ave/delta/count) on step 1340000
Bond:   1   1         1.36514e-06     6906
Angle:  1   109.47    9.66527e-05     3453
   1340000   135.67168     -1612.0839      0             -1339.4721     -12.723062    
SHAKE stats (type/ave/delta/count) on step 1350000
Bond:   1   1         1.6426e-06      6906
Angle:  1   109.47    0.00010999      3453
   1350000   131.3004      -1607.0578      0             -1343.2295     -16.617018    
SHAKE stats (type/ave/delta/count) on step 1360000
Bond:   1   1         1.13652e-06     6906
Angle:  1   109.47    9.49704e-05     3453
   1360000   130.85027     -1615.9136      0             -1352.9897     -18.289492    
SHAKE stats (type/ave/delta/count) on step 1370000
Bond:   1   1         1.7051e-06      6906
Angle:  1   109.47    9.4986e-05      3453
   1370000   131.40334     -1612.6719      0             -1348.6367     -11.422758    
SHAKE stats (type/ave/delta/count) on step 1380000
Bond:   1   1         1.56579e-06     6906
Angle:  1   109.47    0.000110578     3453
   1380000   133.31764     -1612.4558      0             -1344.5741     -12.612204    
SHAKE stats (type/ave/delta/count) on step 1390000
Bond:   1   1         1.24136e-06     6906
Angle:  1   109.47    0.000102434     3453
   1390000   133.0159      -1610.8422      0             -1343.5669     -7.3723968    
SHAKE stats (type/ave/delta/count) on step 1400000
Bond:   1   1         1.40809e-06     6906
Angle:  1   109.47    0.000101619     3453
   1400000   133.47458     -1608.1136      0             -1339.9166     -15.719844    
SHAKE stats (type/ave/delta/count) on step 1410000
Bond:   1   1         1.44223e-06     6906
Angle:  1   109.47    0.000106837     3453
   1410000   134.88704     -1614.8619      0             -1343.8267      1.6399396    
SHAKE stats (type/ave/delta/count) on step 1420000
Bond:   1   1         1.33852e-06     6906
Angle:  1   109.47    0.000112251     3453
   1420000   133.23203     -1614.7056      0             -1346.996      -10.576001    
SHAKE stats (type/ave/delta/count) on step 1430000
Bond:   1   1         1.4935e-06      6906
Angle:  1   109.47    9.14549e-05     3453
   1430000   132.73204     -1608.9627      0             -1342.2577     -7.2420489    
SHAKE stats (type/ave/delta/count) on step 1440000
Bond:   1   1         1.3411e-06      6906
Angle:  1   109.47    9.28661e-05     3453
   1440000   132.26927     -1607.5456      0             -1341.7705      3.1314569    
SHAKE stats (type/ave/delta/count) on step 1450000
Bond:   1   1         1.20324e-06     6906
Angle:  1   109.47    0.000105866     3453
   1450000   135.37804     -1613.0085      0             -1340.9868     -2.2486302    
SHAKE stats (type/ave/delta/count) on step 1460000
Bond:   1   1         1.44758e-06     6906
Angle:  1   109.47    0.000113897     3453
   1460000   132.5401      -1611.6617      0             -1345.3424     -5.5352666    
SHAKE stats (type/ave/delta/count) on step 1470000
Bond:   1   1         1.22271e-06     6906
Angle:  1   109.47    9.14948e-05     3453
   1470000   136.75799     -1604.0044      0             -1329.2099     -6.404812     
SHAKE stats (type/ave/delta/count) on step 1480000
Bond:   1   1         1.31136e-06     6906
Angle:  1   109.47    9.66204e-05     3453
   1480000   131.54205     -1611.427       0             -1347.1131     -5.6516071    
SHAKE stats (type/ave/delta/count) on step 1490000
Bond:   1   1         1.58399e-06     6906
Angle:  1   109.47    0.000119158     3453
   1490000   132.3576      -1612.9327      0             -1346.9801     -8.9910755    
SHAKE stats (type/ave/delta/count) on step 1500000
Bond:   1   1         1.26869e-06     6906
Angle:  1   109.47    9.28953e-05     3453
   1500000   131.93394     -1612.6545      0             -1347.5532     -11.50988     
SHAKE stats (type/ave/delta/count) on step 1510000
Bond:   1   1         1.36579e-06     6906
Angle:  1   109.47    0.0001023       3453
   1510000   131.73205     -1612.7098      0             -1348.0141     -1.2366827    
SHAKE stats (type/ave/delta/count) on step 1520000
Bond:   1   1         1.41211e-06     6906
Angle:  1   109.47    0.000110522     3453
   1520000   131.77501     -1612.5374      0             -1347.7554     -5.0856461    
SHAKE stats (type/ave/delta/count) on step 1530000
Bond:   1   1         1.34703e-06     6906
Angle:  1   109.47    9.6075e-05      3453
   1530000   133.38456     -1615.3178      0             -1347.3017     -11.955128    
SHAKE stats (type/ave/delta/count) on step 1540000
Bond:   1   1         1.49652e-06     6906
Angle:  1   109.47    0.000110847     3453
   1540000   133.75104     -1614.2998      0             -1345.5473     -13.90551     
SHAKE stats (type/ave/delta/count) on step 1550000
Bond:   1   1         1.19008e-06     6906
Angle:  1   109.47    9.31116e-05     3453
   1550000   133.3165      -1604.2258      0             -1336.3464     -16.481645    
SHAKE stats (type/ave/delta/count) on step 1560000
Bond:   1   1         1.47755e-06     6906
Angle:  1   109.47    0.000107356     3453
   1560000   133.00733     -1613.2822      0             -1346.024      -5.4535399    
SHAKE stats (type/ave/delta/count) on step 1570000
Bond:   1   1         1.35522e-06     6906
Angle:  1   109.47    0.00011838      3453
   1570000   134.87399     -1610.2772      0             -1339.2683     -21.187937    
SHAKE stats (type/ave/delta/count) on step 1580000
Bond:   1   1         1.56791e-06     6906
Angle:  1   109.47    0.000124297     3453
   1580000   131.16573     -1611.5714      0             -1348.0137     -7.4886349    
SHAKE stats (type/ave/delta/count) on step 1590000
Bond:   1   1         1.29482e-06     6906
Angle:  1   109.47    0.000110532     3453
   1590000   132.62101     -1614.0417      0             -1347.5598     -26.308494    
SHAKE stats (type/ave/delta/count) on step 1600000
Bond:   1   1         1.10577e-06     6906
Angle:  1   109.47    9.173e-05       3453
   1600000   133.65849     -1607.2874      0             -1338.7209     -8.9584444    
SHAKE stats (type/ave/delta/count) on step 1610000
Bond:   1   1         1.29303e-06     6906
Angle:  1   109.47    9.26205e-05     3453
   1610000   134.79229     -1615.6053      0             -1344.7606     -9.1815627    
SHAKE stats (type/ave/delta/count) on step 1620000
Bond:   1   1         1.40311e-06     6906
Angle:  1   109.47    0.000109271     3453
   1620000   134.01612     -1606.4428      0             -1337.1576     -15.320994    
SHAKE stats (type/ave/delta/count) on step 1630000
Bond:   1   1         1.42822e-06     6906
Angle:  1   109.47    8.80575e-05     3453
   1630000   132.03697     -1612.8641      0             -1347.5558     -7.4078191    
SHAKE stats (type/ave/delta/count) on step 1640000
Bond:   1   1         1.2707e-06      6906
Angle:  1   109.47    9.45424e-05     3453
   1640000   133.62967     -1610.1599      0             -1341.6512     -4.9829694    
SHAKE stats (type/ave/delta/count) on step 1650000
Bond:   1   1         1.09564e-06     6906
Angle:  1   109.47    0.000106738     3453
   1650000   131.15845     -1609.1164      0             -1345.5733     -19.157265    
SHAKE stats (type/ave/delta/count) on step 1660000
Bond:   1   1         2.00765e-06     6906
Angle:  1   109.47    0.000146175     3453
   1660000   135.24445     -1617.1022      0             -1345.3489     -10.066424    
SHAKE stats (type/ave/delta/count) on step 1670000
Bond:   1   1         1.10985e-06     6906
Angle:  1   109.47    9.53843e-05     3453
   1670000   133.2864      -1611.5583      0             -1343.7394     -2.8680015    
SHAKE stats (type/ave/delta/count) on step 1680000
Bond:   1   1         1.49569e-06     6906
Angle:  1   109.47    0.00011696      3453
   1680000   131.91043     -1617.7109      0             -1352.6568     -9.7921972    
SHAKE stats (type/ave/delta/count) on step 1690000
Bond:   1   1         1.21312e-06     6906
Angle:  1   109.47    9.49641e-05     3453
   1690000   132.0921      -1610.3587      0             -1344.9396     -4.96975      
SHAKE stats (type/ave/delta/count) on step 1700000
Bond:   1   1         1.30372e-06     6906
Angle:  1   109.47    0.000100214     3453
   1700000   134.23757     -1611.6739      0             -1341.9438     -1.6170997    
SHAKE stats (type/ave/delta/count) on step 1710000
Bond:   1   1         1.41478e-06     6906
Angle:  1   109.47    0.000114951     3453
   1710000   133.00305     -1610.6831      0             -1343.4335     -18.149313    
SHAKE stats (type/ave/delta/count) on step 1720000
Bond:   1   1         1.51489e-06     6906
Angle:  1   109.47    0.000104075     3453
   1720000   134.61909     -1614.8316      0             -1344.3349     -7.4365094    
SHAKE stats (type/ave/delta/count) on step 1730000
Bond:   1   1         1.31977e-06     6906
Angle:  1   109.47    0.000111293     3453
   1730000   131.3446      -1606.1444      0             -1342.2272     -17.312945    
SHAKE stats (type/ave/delta/count) on step 1740000
Bond:   1   1         1.25133e-06     6906
Angle:  1   109.47    9.65867e-05     3453
   1740000   135.02876     -1611.0568      0             -1339.7369     -11.693287    
SHAKE stats (type/ave/delta/count) on step 1750000
Bond:   1   1         1.23475e-06     6906
Angle:  1   109.47    9.61364e-05     3453
   1750000   132.76396     -1619.0503      0             -1352.2812     -10.227847    
SHAKE stats (type/ave/delta/count) on step 1760000
Bond:   1   1         1.42163e-06     6906
Angle:  1   109.47    0.000103445     3453
   1760000   134.8863      -1614.6042      0             -1343.5706     -3.3781185    
SHAKE stats (type/ave/delta/count) on step 1770000
Bond:   1   1         1.18571e-06     6906
Angle:  1   109.47    0.000116106     3453
   1770000   133.64257     -1611.7742      0             -1343.2396     -8.0300131    
SHAKE stats (type/ave/delta/count) on step 1780000
Bond:   1   1         1.64387e-06     6906
Angle:  1   109.47    0.000129792     3453
   1780000   133.19436     -1609.4414      0             -1341.8074     -20.842085    
SHAKE stats (type/ave/delta/count) on step 1790000
Bond:   1   1         1.36297e-06     6906
Angle:  1   109.47    9.47736e-05     3453
   1790000   132.77547     -1620.7035      0             -1353.9113      0.085346313  
SHAKE stats (type/ave/delta/count) on step 1800000
Bond:   1   1         1.20065e-06     6906
Angle:  1   109.47    9.32506e-05     3453
   1800000   130.25106     -1610.7829      0             -1349.0631     -5.9000403    
SHAKE stats (type/ave/delta/count) on step 1810000
Bond:   1   1         1.48293e-06     6906
Angle:  1   109.47    0.000113735     3453
   1810000   135.37584     -1605.568       0             -1333.5507     -7.2941041    
SHAKE stats (type/ave/delta/count) on step 1820000
Bond:   1   1         1.26361e-06     6906
Angle:  1   109.47    0.000108591     3453
   1820000   133.01834     -1615.817       0             -1348.5368     -13.946708    
SHAKE stats (type/ave/delta/count) on step 1830000
Bond:   1   1         1.29379e-06     6906
Angle:  1   109.47    0.000103895     3453
   1830000   133.64109     -1606.6528      0             -1338.1212     -7.5538856    
SHAKE stats (type/ave/delta/count) on step 1840000
Bond:   1   1         1.13948e-06     6906
Angle:  1   109.47    0.000116222     3453
   1840000   133.56975     -1617.3214      0             -1348.9332      3.3614821    
SHAKE stats (type/ave/delta/count) on step 1850000
Bond:   1   1         1.32951e-06     6906
Angle:  1   109.47    9.80803e-05     3453
   1850000   134.41754     -1611.3155      0             -1341.2238      0.87811509   
SHAKE stats (type/ave/delta/count) on step 1860000
Bond:   1   1         1.27444e-06     6906
Angle:  1   109.47    9.35152e-05     3453
   1860000   134.14844     -1612.0924      0             -1342.5413     -6.0955977    
SHAKE stats (type/ave/delta/count) on step 1870000
Bond:   1   1         1.43256e-06     6906
Angle:  1   109.47    9.06828e-05     3453
   1870000   130.67254     -1613.0194      0             -1350.4527     -11.951019    
SHAKE stats (type/ave/delta/count) on step 1880000
Bond:   1   1         1.32177e-06     6906
Angle:  1   109.47    0.000108374     3453
   1880000   132.58844     -1615.9823      0             -1349.5659     -11.187685    
SHAKE stats (type/ave/delta/count) on step 1890000
Bond:   1   1         1.19755e-06     6906
Angle:  1   109.47    9.98026e-05     3453
   1890000   133.76476     -1614.5938      0             -1345.8137     -12.086215    
SHAKE stats (type/ave/delta/count) on step 1900000
Bond:   1   1         1.26619e-06     6906
Angle:  1   109.47    0.000100401     3453
   1900000   130.37083     -1609.3772      0             -1347.4167     -6.6083369    
SHAKE stats (type/ave/delta/count) on step 1910000
Bond:   1   1         1.14551e-06     6906
Angle:  1   109.47    0.000100757     3453
   1910000   131.68428     -1611.729       0             -1347.1294     -17.570008    
SHAKE stats (type/ave/delta/count) on step 1920000
Bond:   1   1         1.14398e-06     6906
Angle:  1   109.47    9.67887e-05     3453
   1920000   132.14322     -1598.4313      0             -1332.9095     -5.0065658    
SHAKE stats (type/ave/delta/count) on step 1930000
Bond:   1   1         1.35333e-06     6906
Angle:  1   109.47    0.000106852     3453
   1930000   131.31487     -1611.1052      0             -1347.2478     -12.558354    
SHAKE stats (type/ave/delta/count) on step 1940000
Bond:   1   1         1.21376e-06     6906
Angle:  1   109.47    0.000103092     3453
   1940000   135.66444     -1612.9505      0             -1340.3533     -11.026007    
SHAKE stats (type/ave/delta/count) on step 1950000
Bond:   1   1         1.35977e-06     6906
Angle:  1   109.47    9.36817e-05     3453
   1950000   135.15458     -1617.2374      0             -1345.6647     -12.925543    
SHAKE stats (type/ave/delta/count) on step 1960000
Bond:   1   1         1.46286e-06     6906
Angle:  1   109.47    0.000109222     3453
   1960000   132.88555     -1612.1095      0             -1345.0961     -21.927171    
SHAKE stats (type/ave/delta/count) on step 1970000
Bond:   1   1         1.34655e-06     6906
Angle:  1   109.47    9.28717e-05     3453
   1970000   131.78933     -1617.4194      0             -1352.6086     -20.90228     
SHAKE stats (type/ave/delta/count) on step 1980000
Bond:   1   1         1.20458e-06     6906
Angle:  1   109.47    9.16849e-05     3453
   1980000   132.28374     -1611.1216      0             -1345.3174     -7.699118     
SHAKE stats (type/ave/delta/count) on step 1990000
Bond:   1   1         1.50659e-06     6906
Angle:  1   109.47    0.000104763     3453
   1990000   134.50873     -1613.7257      0             -1343.4508     -3.4558546    
SHAKE stats (type/ave/delta/count) on step 2000000
Bond:   1   1         1.25694e-06     6906
Angle:  1   109.47    9.47655e-05     3453
   2000000   133.49274     -1614.0789      0             -1345.8454     -3.4583611    
Loop time of 12769.7 on 640 procs for 2000000 steps with 18999 atoms

Performance: 13.532 ns/day, 1.774 hours/ns, 156.621 timesteps/s, 2.976 Matom-step/s
100.0% CPU use with 640 MPI tasks x 1 OpenMP threads

MPI task timing breakdown:
Section |  min time  |  avg time  |  max time  |%varavg| %total
---------------------------------------------------------------
Pair    | 0.18016    | 156.71     | 3137.1     |3677.4 |  1.23
Bond    | 0.15329    | 0.3239     | 0.59323    |  16.7 |  0.00
Kspace  | 8130.5     | 11098      | 11332      | 434.7 | 86.91
Neigh   | 479.67     | 496.53     | 503.85     |  31.9 |  3.89
Comm    | 7.6271     | 108.07     | 458.31     |1238.9 |  0.85
Output  | 34.004     | 99.479     | 163.72     | 376.2 |  0.78
Modify  | 335.53     | 702.44     | 847.26     | 412.3 |  5.50
Other   |            | 108.3      |            |       |  0.85

Nlocal:        29.6859 ave         622 max           0 min
Histogram: 548 57 5 5 8 3 1 2 2 9
Nghost:        298.134 ave        4169 max           0 min
Histogram: 451 120 23 15 13 6 3 6 1 2
Neighs:        4869.79 ave      166141 max           0 min
Histogram: 607 7 7 5 0 3 1 2 1 7

Total # of neighbors = 3116667
Ave neighs/atom = 164.04374
Ave special neighs/atom = 1.0904784
Neighbor list builds = 104338
Dangerous builds = 0
undump DUMP0
write_restart nvt_prod.restart.*
System init for write_restart ...
PPPM initialization ...
  using 12-bit tables for long-range coulomb (src/kspace.cpp:342)
  G vector (1/distance) = 0.29613742
  grid = 90 90 90
  stencil order = 5
  estimated absolute RMS force accuracy = 0.00016052161
  estimated relative force accuracy = 1.1147609e-05
  using double precision KISS FFT
  3d grid and FFT values/proc = 5184 1350
Generated 0 of 3 mixed pair_coeff terms from geometric mixing rule

dump DUMP1 all atom 100 nvt_prod_1.lammpstrj
run 2000000
PPPM initialization ...
  using 12-bit tables for long-range coulomb (src/kspace.cpp:342)
  G vector (1/distance) = 0.29613742
  grid = 90 90 90
  stencil order = 5
  estimated absolute RMS force accuracy = 0.00016052161
  estimated relative force accuracy = 1.1147609e-05
  using double precision KISS FFT
  3d grid and FFT values/proc = 5184 1350
Generated 0 of 3 mixed pair_coeff terms from geometric mixing rule
SHAKE stats (type/ave/delta/count) on step 2000000
Bond:   1   1         1.25694e-06     6906
Angle:  1   109.47    9.47655e-05     3453
Per MPI rank memory allocation (min/avg/max) = 8.063 | 8.292 | 8.945 Mbytes
   Step          Temp          E_pair         E_mol          TotEng         Press     
   2000000   133.49274     -1614.0789      0             -1345.8454     -3.4424541    
SHAKE stats (type/ave/delta/count) on step 2010000
Bond:   1   1         1.25761e-06     6906
Angle:  1   109.47    8.86133e-05     3453
   2010000   134.4106      -1606.3828      0             -1336.305      -17.739701    
SHAKE stats (type/ave/delta/count) on step 2020000
Bond:   1   1         1.12472e-06     6906
Angle:  1   109.47    9.37653e-05     3453
   2020000   132.48187     -1611.0959      0             -1344.8936     -19.766813    
SHAKE stats (type/ave/delta/count) on step 2030000
Bond:   1   1         1.19057e-06     6906
Angle:  1   109.47    9.58713e-05     3453
   2030000   132.73137     -1613.5265      0             -1346.8229     -14.024673    
SHAKE stats (type/ave/delta/count) on step 2040000
Bond:   1   1         1.19918e-06     6906
Angle:  1   109.47    9.31187e-05     3453
   2040000   133.37939     -1621.8165      0             -1353.8107     -1.8357585    
SHAKE stats (type/ave/delta/count) on step 2050000
Bond:   1   1         1.88425e-06     6906
Angle:  1   109.47    0.000102144     3453
   2050000   131.56336     -1619.9533      0             -1355.5966     -11.403272    
SHAKE stats (type/ave/delta/count) on step 2060000
Bond:   1   1         1.48654e-06     6906
Angle:  1   109.47    0.000107673     3453
   2060000   131.65003     -1615.4849      0             -1350.9541     -11.840699    
SHAKE stats (type/ave/delta/count) on step 2070000
Bond:   1   1         1.52541e-06     6906
Angle:  1   109.47    0.000118208     3453
   2070000   134.09779     -1604.7707      0             -1335.3215     -7.0730831    
SHAKE stats (type/ave/delta/count) on step 2080000
Bond:   1   1         1.36571e-06     6906
Angle:  1   109.47    9.83423e-05     3453
   2080000   134.3325      -1608.1574      0             -1338.2365     -7.0014287    
SHAKE stats (type/ave/delta/count) on step 2090000
Bond:   1   1         1.66922e-06     6906
Angle:  1   109.47    0.000124837     3453
   2090000   134.61699     -1617.9924      0             -1347.4999     -13.157459    
SHAKE stats (type/ave/delta/count) on step 2100000
Bond:   1   1         1.20841e-06     6906
Angle:  1   109.47    0.000111932     3453
   2100000   134.56214     -1606.5623      0             -1336.18       -11.592334    
SHAKE stats (type/ave/delta/count) on step 2110000
Bond:   1   1         1.32944e-06     6906
Angle:  1   109.47    0.000118837     3453
   2110000   133.40385     -1618.0672      0             -1350.0123     -5.8796572    
SHAKE stats (type/ave/delta/count) on step 2120000
Bond:   1   1         1.08415e-06     6906
Angle:  1   109.47    9.39674e-05     3453
   2120000   132.80011     -1611.337       0             -1344.4953     -11.005319    
SHAKE stats (type/ave/delta/count) on step 2130000
Bond:   1   1         1.17886e-06     6906
Angle:  1   109.47    9.29069e-05     3453
   2130000   134.97817     -1608.457       0             -1337.2387     -7.9897819    
SHAKE stats (type/ave/delta/count) on step 2140000
Bond:   1   1         1.33274e-06     6906
Angle:  1   109.47    0.000100809     3453
   2140000   133.29039     -1602.3331      0             -1334.5062     -8.4497489    
SHAKE stats (type/ave/delta/count) on step 2150000
Bond:   1   1         1.54613e-06     6906
Angle:  1   109.47    0.000103616     3453
   2150000   131.78689     -1609.2681      0             -1344.4623      4.1318444    
SHAKE stats (type/ave/delta/count) on step 2160000
Bond:   1   1         1.4445e-06      6906
Angle:  1   109.47    0.000102009     3453
   2160000   132.86784     -1609.1494      0             -1342.1715     -16.559334    
SHAKE stats (type/ave/delta/count) on step 2170000
Bond:   1   1         1.48049e-06     6906
Angle:  1   109.47    0.000103984     3453
   2170000   132.46341     -1611.4699      0             -1345.3047     -11.277019    
SHAKE stats (type/ave/delta/count) on step 2180000
Bond:   1   1         1.08638e-06     6906
Angle:  1   109.47    9.50559e-05     3453
   2180000   134.06629     -1608.4693      0             -1339.0834     -20.667536    
SHAKE stats (type/ave/delta/count) on step 2190000
Bond:   1   1         1.41105e-06     6906
Angle:  1   109.47    9.79459e-05     3453
   2190000   133.60912     -1602.8362      0             -1334.3689     -9.1152198    
SHAKE stats (type/ave/delta/count) on step 2200000
Bond:   1   1         1.23171e-06     6906
Angle:  1   109.47    9.38675e-05     3453
   2200000   135.29425     -1615.5008      0             -1343.6474     -4.3805933    
SHAKE stats (type/ave/delta/count) on step 2210000
Bond:   1   1         1.16757e-06     6906
Angle:  1   109.47    0.000117209     3453
   2210000   132.06751     -1609.7395      0             -1344.3698     -13.574447    
SHAKE stats (type/ave/delta/count) on step 2220000
Bond:   1   1         1.59491e-06     6906
Angle:  1   109.47    0.000108327     3453
   2220000   132.26764     -1608.7694      0             -1342.9975      10.60446     
SHAKE stats (type/ave/delta/count) on step 2230000
Bond:   1   1         1.34453e-06     6906
Angle:  1   109.47    0.000105299     3453
   2230000   132.03778     -1618.3815      0             -1353.0716     -11.978852    
SHAKE stats (type/ave/delta/count) on step 2240000
Bond:   1   1         1.31485e-06     6906
Angle:  1   109.47    9.50179e-05     3453
   2240000   135.2748      -1611.8427      0             -1340.0284     -3.567219     
SHAKE stats (type/ave/delta/count) on step 2250000
Bond:   1   1         1.22446e-06     6906
Angle:  1   109.47    9.73846e-05     3453
   2250000   134.32214     -1606.0358      0             -1336.1357      2.050687     
SHAKE stats (type/ave/delta/count) on step 2260000
Bond:   1   1         1.1636e-06      6906
Angle:  1   109.47    0.000101017     3453
   2260000   134.82452     -1614.0819      0             -1343.1724     -8.5930162    
SHAKE stats (type/ave/delta/count) on step 2270000
Bond:   1   1         1.13449e-06     6906
Angle:  1   109.47    9.22419e-05     3453
   2270000   133.88676     -1620.3786      0             -1351.3534      6.858128     
SHAKE stats (type/ave/delta/count) on step 2280000
Bond:   1   1         1.42982e-06     6906
Angle:  1   109.47    9.82893e-05     3453
   2280000   134.02418     -1613.1098      0             -1343.8085     -17.329797    
SHAKE stats (type/ave/delta/count) on step 2290000
Bond:   1   1         1.30043e-06     6906
Angle:  1   109.47    0.000111158     3453
   2290000   134.21873     -1607.3844      0             -1337.6922     -11.501267    
SHAKE stats (type/ave/delta/count) on step 2300000
Bond:   1   1         1.2881e-06      6906
Angle:  1   109.47    9.95166e-05     3453
   2300000   132.50271     -1615.6176      0             -1349.3734     -23.360781    
SHAKE stats (type/ave/delta/count) on step 2310000
Bond:   1   1         1.36167e-06     6906
Angle:  1   109.47    9.45857e-05     3453
   2310000   131.80444     -1606.6431      0             -1341.8019     -8.7784009    
SHAKE stats (type/ave/delta/count) on step 2320000
Bond:   1   1         1.40886e-06     6906
Angle:  1   109.47    9.95533e-05     3453
   2320000   132.99461     -1615.2894      0             -1348.0568     -0.71625372   
SHAKE stats (type/ave/delta/count) on step 2330000
Bond:   1   1         1.21381e-06     6906
Angle:  1   109.47    0.000101384     3453
   2330000   132.68072     -1609.4032      0             -1342.8013     -2.3578763    
SHAKE stats (type/ave/delta/count) on step 2340000
Bond:   1   1         1.37191e-06     6906
Angle:  1   109.47    0.000105673     3453
   2340000   134.65083     -1611.2808      0             -1340.7203     -8.141311     
SHAKE stats (type/ave/delta/count) on step 2350000
Bond:   1   1         1.4919e-06      6906
Angle:  1   109.47    0.000128547     3453
   2350000   131.33233     -1615.0596      0             -1351.1671     -2.9276736    
SHAKE stats (type/ave/delta/count) on step 2360000
Bond:   1   1         1.53335e-06     6906
Angle:  1   109.47    0.000115144     3453
   2360000   132.69966     -1615.8696      0             -1349.2297     -7.0926922    
SHAKE stats (type/ave/delta/count) on step 2370000
Bond:   1   1         1.91679e-06     6906
Angle:  1   109.47    0.000137538     3453
   2370000   134.15365     -1614.5596      0             -1344.9981     -13.815992    
SHAKE stats (type/ave/delta/count) on step 2380000
Bond:   1   1         1.14143e-06     6906
Angle:  1   109.47    9.10372e-05     3453
   2380000   133.17376     -1610.0961      0             -1342.5036     -11.219251    
SHAKE stats (type/ave/delta/count) on step 2390000
Bond:   1   1         1.12803e-06     6906
Angle:  1   109.47    9.28228e-05     3453
   2390000   133.72807     -1611.9507      0             -1343.2443     -4.6290102    
SHAKE stats (type/ave/delta/count) on step 2400000
Bond:   1   1         1.17457e-06     6906
Angle:  1   109.47    0.000118126     3453
   2400000   132.95116     -1607.33        0             -1340.1848     -17.485352    
SHAKE stats (type/ave/delta/count) on step 2410000
Bond:   1   1         1.27631e-06     6906
Angle:  1   109.47    0.000112023     3453
   2410000   134.36717     -1611.7042      0             -1341.7137      5.9029685    
SHAKE stats (type/ave/delta/count) on step 2420000
Bond:   1   1         1.55011e-06     6906
Angle:  1   109.47    0.000104393     3453
   2420000   131.31785     -1613.4674      0             -1349.604      -22.516571    
SHAKE stats (type/ave/delta/count) on step 2430000
Bond:   1   1         1.43842e-06     6906
Angle:  1   109.47    0.00010494      3453
   2430000   135.07917     -1604.9405      0             -1333.5193      0.76146777   
SHAKE stats (type/ave/delta/count) on step 2440000
Bond:   1   1         1.39231e-06     6906
Angle:  1   109.47    0.000104736     3453
   2440000   133.88952     -1601.1441      0             -1332.1133     -12.983243    
SHAKE stats (type/ave/delta/count) on step 2450000
Bond:   1   1         1.79683e-06     6906
Angle:  1   109.47    0.000115325     3453
   2450000   134.93657     -1615.1046      0             -1343.9699     -6.3635207    
SHAKE stats (type/ave/delta/count) on step 2460000
Bond:   1   1         1.46798e-06     6906
Angle:  1   109.47    9.9594e-05      3453
   2460000   134.63649     -1607.039       0             -1336.5073     -10.958682    
SHAKE stats (type/ave/delta/count) on step 2470000
Bond:   1   1         1.45303e-06     6906
Angle:  1   109.47    0.000115604     3453
   2470000   132.02923     -1609.2202      0             -1343.9274      2.6939176    
SHAKE stats (type/ave/delta/count) on step 2480000
Bond:   1   1         1.16794e-06     6906
Angle:  1   109.47    0.000102297     3453
   2480000   133.05472     -1600.1899      0             -1332.8365     -8.9628467    
SHAKE stats (type/ave/delta/count) on step 2490000
Bond:   1   1         1.43997e-06     6906
Angle:  1   109.47    0.000103665     3453
   2490000   135.34909     -1612.9221      0             -1340.9585     -10.305589    
SHAKE stats (type/ave/delta/count) on step 2500000
Bond:   1   1         1.2885e-06      6906
Angle:  1   109.47    9.88697e-05     3453
   2500000   130.87234     -1623.4969      0             -1360.5287     -14.547441    
SHAKE stats (type/ave/delta/count) on step 2510000
Bond:   1   1         1.30803e-06     6906
Angle:  1   109.47    0.000107349     3453
   2510000   132.98426     -1617.424       0             -1350.2122     -6.3928257    
SHAKE stats (type/ave/delta/count) on step 2520000
Bond:   1   1         1.17374e-06     6906
Angle:  1   109.47    0.00010563      3453
   2520000   133.22912     -1613.9284      0             -1346.2246     -6.591959     
SHAKE stats (type/ave/delta/count) on step 2530000
Bond:   1   1         1.38892e-06     6906
Angle:  1   109.47    0.00010897      3453
   2530000   133.65857     -1609.7178      0             -1341.1511     -0.7465582    
SHAKE stats (type/ave/delta/count) on step 2540000
Bond:   1   1         1.23109e-06     6906
Angle:  1   109.47    9.66689e-05     3453
   2540000   130.41161     -1605.0574      0             -1343.0149     -12.584695    
SHAKE stats (type/ave/delta/count) on step 2550000
Bond:   1   1         1.28617e-06     6906
Angle:  1   109.47    9.30928e-05     3453
   2550000   134.98652     -1616.2794      0             -1345.0443     -4.6676404    
SHAKE stats (type/ave/delta/count) on step 2560000
Bond:   1   1         1.20487e-06     6906
Angle:  1   109.47    0.000111273     3453
   2560000   133.68846     -1613.5485      0             -1344.9217     -5.181886     
SHAKE stats (type/ave/delta/count) on step 2570000
Bond:   1   1         1.22896e-06     6906
Angle:  1   109.47    9.95747e-05     3453
   2570000   135.33162     -1621.095       0             -1349.1666     -11.965939    
SHAKE stats (type/ave/delta/count) on step 2580000
Bond:   1   1         1.17552e-06     6906
Angle:  1   109.47    9.27563e-05     3453
   2580000   133.58049     -1616.902       0             -1348.4922     -13.49899     
SHAKE stats (type/ave/delta/count) on step 2590000
Bond:   1   1         1.17831e-06     6906
Angle:  1   109.47    9.19895e-05     3453
   2590000   131.77891     -1614.9589      0             -1350.1691     -14.939908    
SHAKE stats (type/ave/delta/count) on step 2600000
Bond:   1   1         1.61282e-06     6906
Angle:  1   109.47    9.57311e-05     3453
   2600000   132.98616     -1615.0082      0             -1347.7926     -13.96728     
SHAKE stats (type/ave/delta/count) on step 2610000
Bond:   1   1         1.72425e-06     6906
Angle:  1   109.47    0.000125448     3453
   2610000   131.10865     -1618.0291      0             -1354.5861     -17.542969    
SHAKE stats (type/ave/delta/count) on step 2620000
Bond:   1   1         1.14487e-06     6906
Angle:  1   109.47    0.000117183     3453
   2620000   134.24767     -1614.3039      0             -1344.5535      9.8691413    
SHAKE stats (type/ave/delta/count) on step 2630000
Bond:   1   1         1.32537e-06     6906
Angle:  1   109.47    9.78219e-05     3453
   2630000   131.29313     -1604.9682      0             -1341.1545     -14.238817    
SHAKE stats (type/ave/delta/count) on step 2640000
Bond:   1   1         1.1867e-06      6906
Angle:  1   109.47    9.59737e-05     3453
   2640000   134.7257      -1619.9488      0             -1349.2379     -2.2355666    
SHAKE stats (type/ave/delta/count) on step 2650000
Bond:   1   1         1.16164e-06     6906
Angle:  1   109.47    9.3434e-05      3453
   2650000   131.88        -1612.4749      0             -1347.482      -16.818643    
SHAKE stats (type/ave/delta/count) on step 2660000
Bond:   1   1         1.20434e-06     6906
Angle:  1   109.47    9.28192e-05     3453
   2660000   133.94488     -1614.5858      0             -1345.4438     -15.310212    
SHAKE stats (type/ave/delta/count) on step 2670000
Bond:   1   1         1.3488e-06      6906
Angle:  1   109.47    9.53748e-05     3453
   2670000   132.47681     -1615.8527      0             -1349.6605      2.6390271    
SHAKE stats (type/ave/delta/count) on step 2680000
Bond:   1   1         1.48933e-06     6906
Angle:  1   109.47    0.000148443     3453
   2680000   132.483       -1619.5342      0             -1353.3296     -8.0563832    
SHAKE stats (type/ave/delta/count) on step 2690000
Bond:   1   1         1.33765e-06     6906
Angle:  1   109.47    0.000104055     3453
   2690000   133.60682     -1615.7262      0             -1347.2635     -10.040087    
SHAKE stats (type/ave/delta/count) on step 2700000
Bond:   1   1         1.22456e-06     6906
Angle:  1   109.47    9.94969e-05     3453
   2700000   132.93042     -1611.1069      0             -1344.0033     -9.5295957    
SHAKE stats (type/ave/delta/count) on step 2710000
Bond:   1   1         1.16872e-06     6906
Angle:  1   109.47    9.75714e-05     3453
   2710000   131.07808     -1610.2266      0             -1346.845      -20.511289    
SHAKE stats (type/ave/delta/count) on step 2720000
Bond:   1   1         1.41725e-06     6906
Angle:  1   109.47    9.49716e-05     3453
   2720000   131.37783     -1604.4109      0             -1340.427      -22.601426    
SHAKE stats (type/ave/delta/count) on step 2730000
Bond:   1   1         1.10156e-06     6906
Angle:  1   109.47    9.10056e-05     3453
   2730000   133.40947     -1606.7279      0             -1338.6617     -1.2839037    
SHAKE stats (type/ave/delta/count) on step 2740000
Bond:   1   1         1.24581e-06     6906
Angle:  1   109.47    0.000102186     3453
   2740000   132.41364     -1619.792       0             -1353.7268     -13.423712    
SHAKE stats (type/ave/delta/count) on step 2750000
Bond:   1   1         1.1434e-06      6906
Angle:  1   109.47    9.40274e-05     3453
   2750000   133.47048     -1609.6129      0             -1341.4242     -12.020199    
SHAKE stats (type/ave/delta/count) on step 2760000
Bond:   1   1         1.32297e-06     6906
Angle:  1   109.47    0.000102012     3453
   2760000   133.88843     -1610.5595      0             -1341.5309     -10.317575    
SHAKE stats (type/ave/delta/count) on step 2770000
Bond:   1   1         1.24027e-06     6906
Angle:  1   109.47    9.32868e-05     3453
   2770000   131.98228     -1620.9045      0             -1355.706      -16.145007    
SHAKE stats (type/ave/delta/count) on step 2780000
Bond:   1   1         1.40217e-06     6906
Angle:  1   109.47    9.40725e-05     3453
   2780000   133.31699     -1610.4662      0             -1342.5859      3.0706528    
SHAKE stats (type/ave/delta/count) on step 2790000
Bond:   1   1         1.64609e-06     6906
Angle:  1   109.47    0.000119122     3453
   2790000   133.06254     -1602.216       0             -1334.8469     -7.6516958    
SHAKE stats (type/ave/delta/count) on step 2800000
Bond:   1   1         1.52356e-06     6906
Angle:  1   109.47    9.78491e-05     3453
   2800000   131.69758     -1615.813       0             -1351.1866     -4.0510559    
SHAKE stats (type/ave/delta/count) on step 2810000
Bond:   1   1         1.19719e-06     6906
Angle:  1   109.47    9.80785e-05     3453
   2810000   133.09352     -1607.9942      0             -1340.5629     -6.1051047    
SHAKE stats (type/ave/delta/count) on step 2820000
Bond:   1   1         1.18814e-06     6906
Angle:  1   109.47    0.000101488     3453
   2820000   133.14108     -1608.1871      0             -1340.6602     -19.265181    
SHAKE stats (type/ave/delta/count) on step 2830000
Bond:   1   1         1.26079e-06     6906
Angle:  1   109.47    0.000101756     3453
   2830000   133.69236     -1607.1961      0             -1338.5615     -5.7847623    
SHAKE stats (type/ave/delta/count) on step 2840000
Bond:   1   1         1.54995e-06     6906
Angle:  1   109.47    9.85395e-05     3453
   2840000   132.91708     -1607.5161      0             -1340.4393     -19.681458    
SHAKE stats (type/ave/delta/count) on step 2850000
Bond:   1   1         1.25738e-06     6906
Angle:  1   109.47    0.000117787     3453
   2850000   131.23126     -1622.3539      0             -1358.6646     -2.0845874    
SHAKE stats (type/ave/delta/count) on step 2860000
Bond:   1   1         1.41073e-06     6906
Angle:  1   109.47    0.00010886      3453
   2860000   132.82864     -1610.4566      0             -1343.5575     -4.7443001    
SHAKE stats (type/ave/delta/count) on step 2870000
Bond:   1   1         1.55739e-06     6906
Angle:  1   109.47    0.000130424     3453
   2870000   135.13451     -1614.0298      0             -1342.4974     -14.786443    
SHAKE stats (type/ave/delta/count) on step 2880000
Bond:   1   1         1.16073e-06     6906
Angle:  1   109.47    9.88782e-05     3453
   2880000   131.82435     -1613.4957      0             -1348.6145      2.9214955    
SHAKE stats (type/ave/delta/count) on step 2890000
Bond:   1   1         1.35619e-06     6906
Angle:  1   109.47    0.000111168     3453
   2890000   132.9037      -1606.9275      0             -1339.8776     -15.246503    
SHAKE stats (type/ave/delta/count) on step 2900000
Bond:   1   1         1.76026e-06     6906
Angle:  1   109.47    0.000130583     3453
   2900000   134.48347     -1619.2898      0             -1349.0656     -10.567211    
SHAKE stats (type/ave/delta/count) on step 2910000
Bond:   1   1         1.13573e-06     6906
Angle:  1   109.47    9.49904e-05     3453
   2910000   130.35742     -1616.3656      0             -1354.432      -9.1676843    
SHAKE stats (type/ave/delta/count) on step 2920000
Bond:   1   1         1.29935e-06     6906
Angle:  1   109.47    9.57766e-05     3453
   2920000   132.98875     -1609.7558      0             -1342.535      -2.2403979    
SHAKE stats (type/ave/delta/count) on step 2930000
Bond:   1   1         1.24562e-06     6906
Angle:  1   109.47    0.000106428     3453
   2930000   132.95279     -1617.4818      0             -1350.3333     -6.545154     
SHAKE stats (type/ave/delta/count) on step 2940000
Bond:   1   1         1.30161e-06     6906
Angle:  1   109.47    0.000114258     3453
   2940000   133.48128     -1607.0409      0             -1338.8305     -14.34275     
SHAKE stats (type/ave/delta/count) on step 2950000
Bond:   1   1         1.2416e-06      6906
Angle:  1   109.47    9.76866e-05     3453
   2950000   135.28923     -1613.6872      0             -1341.8439     -18.611845    
SHAKE stats (type/ave/delta/count) on step 2960000
Bond:   1   1         1.3909e-06      6906
Angle:  1   109.47    9.87413e-05     3453
   2960000   134.85937     -1618.8209      0             -1347.8413     -12.414981    
SHAKE stats (type/ave/delta/count) on step 2970000
Bond:   1   1         1.23353e-06     6906
Angle:  1   109.47    0.000134922     3453
   2970000   132.86966     -1608.5848      0             -1341.6033      8.0550909    
SHAKE stats (type/ave/delta/count) on step 2980000
Bond:   1   1         1.18113e-06     6906
Angle:  1   109.47    9.88186e-05     3453
   2980000   134.7986      -1615.6872      0             -1344.8298      0.91658907   
SHAKE stats (type/ave/delta/count) on step 2990000
Bond:   1   1         1.50618e-06     6906
Angle:  1   109.47    0.000121089     3453
   2990000   133.17144     -1617.4797      0             -1349.8918     -17.836051    
SHAKE stats (type/ave/delta/count) on step 3000000
Bond:   1   1         1.24699e-06     6906
Angle:  1   109.47    9.92776e-05     3453
   3000000   130.25468     -1621.0918      0             -1359.3647     -10.346257    
SHAKE stats (type/ave/delta/count) on step 3010000
Bond:   1   1         1.49288e-06     6906
Angle:  1   109.47    0.000102064     3453
   3010000   132.79233     -1610.4897      0             -1343.6635     -15.597144    
SHAKE stats (type/ave/delta/count) on step 3020000
Bond:   1   1         1.35814e-06     6906
Angle:  1   109.47    0.000110025     3453
   3020000   133.06202     -1619.1789      0             -1351.8109     -4.7581274    
SHAKE stats (type/ave/delta/count) on step 3030000
Bond:   1   1         1.2944e-06      6906
Angle:  1   109.47    9.29119e-05     3453
   3030000   133.10757     -1610.3092      0             -1342.8496     -11.65614     
SHAKE stats (type/ave/delta/count) on step 3040000
Bond:   1   1         1.43437e-06     6906
Angle:  1   109.47    0.000101998     3453
   3040000   134.11288     -1612.6504      0             -1343.1708     -22.956804    
SHAKE stats (type/ave/delta/count) on step 3050000
Bond:   1   1         1.31277e-06     6906
Angle:  1   109.47    9.74655e-05     3453
   3050000   134.13721     -1610.2086      0             -1340.6801     -2.2070211    
SHAKE stats (type/ave/delta/count) on step 3060000
Bond:   1   1         1.28881e-06     6906
Angle:  1   109.47    9.234e-05       3453
   3060000   132.95088     -1609.1765      0             -1342.0318     -2.1598798    
SHAKE stats (type/ave/delta/count) on step 3070000
Bond:   1   1         1.60313e-06     6906
Angle:  1   109.47    0.00012004      3453
   3070000   133.78976     -1607.2765      0             -1338.4462     -12.265792    
SHAKE stats (type/ave/delta/count) on step 3080000
Bond:   1   1         1.28485e-06     6906
Angle:  1   109.47    0.000115639     3453
   3080000   134.23457     -1613.2049      0             -1343.4808     -8.5874156    
SHAKE stats (type/ave/delta/count) on step 3090000
Bond:   1   1         1.18222e-06     6906
Angle:  1   109.47    9.55269e-05     3453
   3090000   133.34948     -1613.4657      0             -1345.52       -17.491722    
SHAKE stats (type/ave/delta/count) on step 3100000
Bond:   1   1         1.15051e-06     6906
Angle:  1   109.47    0.000104347     3453
   3100000   134.26763     -1615.5124      0             -1345.7218     -9.7737755    
SHAKE stats (type/ave/delta/count) on step 3110000
Bond:   1   1         1.25364e-06     6906
Angle:  1   109.47    9.67424e-05     3453
   3110000   132.23944     -1615.2671      0             -1349.552      -10.452358    
SHAKE stats (type/ave/delta/count) on step 3120000
Bond:   1   1         1.38782e-06     6906
Angle:  1   109.47    9.00946e-05     3453
   3120000   134.82192     -1615.5124      0             -1344.6081     -1.8326523    
SHAKE stats (type/ave/delta/count) on step 3130000
Bond:   1   1         1.82451e-06     6906
Angle:  1   109.47    0.000102145     3453
   3130000   134.68652     -1615.531       0             -1344.8988     -7.1596481    
SHAKE stats (type/ave/delta/count) on step 3140000
Bond:   1   1         1.33317e-06     6906
Angle:  1   109.47    9.52634e-05     3453
   3140000   133.40464     -1616.8187      0             -1348.7622     -15.072381    
SHAKE stats (type/ave/delta/count) on step 3150000
Bond:   1   1         1.62913e-06     6906
Angle:  1   109.47    0.00011764      3453
   3150000   135.73455     -1610.5616      0             -1337.8236     -9.0692175    
SHAKE stats (type/ave/delta/count) on step 3160000
Bond:   1   1         1.16621e-06     6906
Angle:  1   109.47    9.59096e-05     3453
   3160000   133.38762     -1610.1533      0             -1342.1311     -10.970302    
SHAKE stats (type/ave/delta/count) on step 3170000
Bond:   1   1         1.28858e-06     6906
Angle:  1   109.47    9.71835e-05     3453
   3170000   132.90752     -1619.6328      0             -1352.5752     -6.2747524    
SHAKE stats (type/ave/delta/count) on step 3180000
Bond:   1   1         1.78026e-06     6906
Angle:  1   109.47    0.000107023     3453
   3180000   132.96361     -1605.9878      0             -1338.8175     -4.2631812    
SHAKE stats (type/ave/delta/count) on step 3190000
Bond:   1   1         1.71873e-06     6906
Angle:  1   109.47    0.000120259     3453
   3190000   134.85006     -1622.8236      0             -1351.8628     -14.322684    
SHAKE stats (type/ave/delta/count) on step 3200000
Bond:   1   1         1.21996e-06     6906
Angle:  1   109.47    0.000100644     3453
   3200000   133.15584     -1610.0768      0             -1342.5202     -19.689836    
SHAKE stats (type/ave/delta/count) on step 3210000
Bond:   1   1         1.16501e-06     6906
Angle:  1   109.47    9.71353e-05     3453
   3210000   132.9614      -1604.5924      0             -1337.4265     -9.5925056    
SHAKE stats (type/ave/delta/count) on step 3220000
Bond:   1   1         1.16532e-06     6906
Angle:  1   109.47    9.91276e-05     3453
   3220000   134.7398      -1608.8998      0             -1338.1606     -17.826942    
SHAKE stats (type/ave/delta/count) on step 3230000
Bond:   1   1         1.19152e-06     6906
Angle:  1   109.47    0.000102048     3453
   3230000   133.76497     -1610.4335      0             -1341.653       0.71209405   
SHAKE stats (type/ave/delta/count) on step 3240000
Bond:   1   1         1.23163e-06     6906
Angle:  1   109.47    9.69461e-05     3453
   3240000   134.21694     -1614.5606      0             -1344.872      -4.5636961    
SHAKE stats (type/ave/delta/count) on step 3250000
Bond:   1   1         1.48533e-06     6906
Angle:  1   109.47    0.000100831     3453
   3250000   132.04592     -1605.5636      0             -1340.2373     -11.467577    
SHAKE stats (type/ave/delta/count) on step 3260000
Bond:   1   1         1.20039e-06     6906
Angle:  1   109.47    9.11543e-05     3453
   3260000   132.32414     -1613.8457      0             -1347.9603     -6.6940734    
SHAKE stats (type/ave/delta/count) on step 3270000
Bond:   1   1         1.44677e-06     6906
Angle:  1   109.47    0.000101778     3453
   3270000   132.13935     -1608.468       0             -1342.954       6.2551664    
SHAKE stats (type/ave/delta/count) on step 3280000
Bond:   1   1         1.43299e-06     6906
Angle:  1   109.47    0.00010978      3453
   3280000   132.115       -1615.9078      0             -1350.4427     -9.6917004    
SHAKE stats (type/ave/delta/count) on step 3290000
Bond:   1   1         1.25568e-06     6906
Angle:  1   109.47    9.5941e-05      3453
   3290000   133.14795     -1610.7617      0             -1343.221      -6.729892     
SHAKE stats (type/ave/delta/count) on step 3300000
Bond:   1   1         1.1706e-06      6906
Angle:  1   109.47    9.09912e-05     3453
[...]
Bond:   1   1         1.25182e-06     6906
Angle:  1   109.47    9.26743e-05     3453
   9220000   132.57345     -1615.2525      0             -1348.8662     -9.6670575    
SHAKE stats (type/ave/delta/count) on step 9230000
Bond:   1   1         1.11793e-06     6906
Angle:  1   109.47    0.00010724      3453
   9230000   133.09559     -1612.2846      0             -1344.8491     -5.0890801    
SHAKE stats (type/ave/delta/count) on step 9240000
Bond:   1   1         1.38589e-06     6906
Angle:  1   109.47    0.000101434     3453
   9240000   133.0294      -1613.9986      0             -1346.6961     -9.0629041    
SHAKE stats (type/ave/delta/count) on step 9250000
Bond:   1   1         1.57459e-06     6906
Angle:  1   109.47    9.47624e-05     3453
   9250000   134.91597     -1614.2159      0             -1343.1226      3.4325387    
SHAKE stats (type/ave/delta/count) on step 9260000
Bond:   1   1         1.19496e-06     6906
Angle:  1   109.47    9.99902e-05     3453
   9260000   132.83463     -1597.4783      0             -1330.5672     -10.302129    
SHAKE stats (type/ave/delta/count) on step 9270000
Bond:   1   1         1.37469e-06     6906
Angle:  1   109.47    0.00010769      3453
   9270000   133.01781     -1615.5828      0             -1348.3036     -10.180401    
SHAKE stats (type/ave/delta/count) on step 9280000
Bond:   1   1         1.18192e-06     6906
Angle:  1   109.47    9.84068e-05     3453
   9280000   135.35933     -1617.6494      0             -1345.6653     -3.7135756    
SHAKE stats (type/ave/delta/count) on step 9290000
Bond:   1   1         1.37136e-06     6906
Angle:  1   109.47    0.000108443     3453
   9290000   131.51984     -1612.3732      0             -1348.104      -16.802954    
SHAKE stats (type/ave/delta/count) on step 9300000
Bond:   1   1         1.37613e-06     6906
Angle:  1   109.47    0.000100024     3453
   9300000   133.10498     -1612.6518      0             -1345.1975     -6.1883836    
SHAKE stats (type/ave/delta/count) on step 9310000
Bond:   1   1         1.19793e-06     6906
Angle:  1   109.47    9.43564e-05     3453
   9310000   134.11459     -1615.1955      0             -1345.7125     -23.50987     
SHAKE stats (type/ave/delta/count) on step 9320000
Bond:   1   1         1.42824e-06     6906
Angle:  1   109.47    0.000101263     3453
   9320000   135.52653     -1618.1841      0             -1345.864      -7.8751034    
SHAKE stats (type/ave/delta/count) on step 9330000
Bond:   1   1         1.14395e-06     6906
Angle:  1   109.47    0.000101681     3453
   9330000   134.5126      -1606.9655      0             -1336.6827     -5.8823938    
SHAKE stats (type/ave/delta/count) on step 9340000
Bond:   1   1         1.36429e-06     6906
Angle:  1   109.47    0.000104994     3453
   9340000   135.28598     -1614.4674      0             -1342.6307     -9.3424619    
SHAKE stats (type/ave/delta/count) on step 9350000
Bond:   1   1         1.16874e-06     6906
Angle:  1   109.47    9.33279e-05     3453
   9350000   133.76914     -1607.0776      0             -1338.2887     -10.765739    
SHAKE stats (type/ave/delta/count) on step 9360000
Bond:   1   1         1.0714e-06      6906
Angle:  1   109.47    9.5008e-05      3453
   9360000   132.18152     -1609.3502      0             -1343.7514     -12.638303    
SHAKE stats (type/ave/delta/count) on step 9370000
Bond:   1   1         1.22846e-06     6906
Angle:  1   109.47    0.00010082      3453
   9370000   132.12451     -1618.0188      0             -1352.5345     -1.6384685    
SHAKE stats (type/ave/delta/count) on step 9380000
Bond:   1   1         1.70699e-06     6906
Angle:  1   109.47    0.000127221     3453
   9380000   133.14527     -1613.1118      0             -1345.5765     -6.844357     
SHAKE stats (type/ave/delta/count) on step 9390000
Bond:   1   1         1.25403e-06     6906
Angle:  1   109.47    9.58833e-05     3453
   9390000   132.22583     -1609.4069      0             -1343.7191      1.1523399    
SHAKE stats (type/ave/delta/count) on step 9400000
Bond:   1   1         1.6547e-06      6906
Angle:  1   109.47    0.000115354     3453
   9400000   133.26972     -1618.3217      0             -1350.5364      0.23208406   
SHAKE stats (type/ave/delta/count) on step 9410000
Bond:   1   1         1.39389e-06     6906
Angle:  1   109.47    9.69716e-05     3453
   9410000   137.27241     -1610.9366      0             -1335.1085     -16.400426    
SHAKE stats (type/ave/delta/count) on step 9420000
Bond:   1   1         1.21896e-06     6906
Angle:  1   109.47    0.000102206     3453
   9420000   131.99457     -1610.5028      0             -1345.2797     -6.2765208    
SHAKE stats (type/ave/delta/count) on step 9430000
Bond:   1   1         1.64941e-06     6906
Angle:  1   109.47    0.000127358     3453
   9430000   133.10469     -1616.0672      0             -1348.6134     -7.8028014    
SHAKE stats (type/ave/delta/count) on step 9440000
Bond:   1   1         1.21321e-06     6906
Angle:  1   109.47    0.000100263     3453
   9440000   134.44173     -1611.6166      0             -1341.4762     -11.390892    
SHAKE stats (type/ave/delta/count) on step 9450000
Bond:   1   1         1.18249e-06     6906
Angle:  1   109.47    0.000105274     3453
   9450000   130.59126     -1609.575       0             -1347.1716     -1.8601728    
SHAKE stats (type/ave/delta/count) on step 9460000
Bond:   1   1         1.40164e-06     6906
Angle:  1   109.47    9.95804e-05     3453
   9460000   134.0639      -1611.3561      0             -1341.9749     -12.679894    
SHAKE stats (type/ave/delta/count) on step 9470000
Bond:   1   1         1.19623e-06     6906
Angle:  1   109.47    9.31464e-05     3453
   9470000   133.61763     -1610.561       0             -1342.0765     -12.42178     
SHAKE stats (type/ave/delta/count) on step 9480000
Bond:   1   1         1.32514e-06     6906
Angle:  1   109.47    9.97437e-05     3453
   9480000   133.06043     -1607.4197      0             -1340.0549     -10.514413    
SHAKE stats (type/ave/delta/count) on step 9490000
Bond:   1   1         1.23485e-06     6906
Angle:  1   109.47    0.000126881     3453
   9490000   133.56484     -1609.1294      0             -1340.751      -3.5336262    
SHAKE stats (type/ave/delta/count) on step 9500000
Bond:   1   1         1.40979e-06     6906
Angle:  1   109.47    0.000100748     3453
   9500000   133.33341     -1612.8787      0             -1344.9654     -11.360444    
SHAKE stats (type/ave/delta/count) on step 9510000
Bond:   1   1         1.14759e-06     6906
Angle:  1   109.47    9.33955e-05     3453
   9510000   133.29756     -1608.7174      0             -1340.8761     -12.505221    
SHAKE stats (type/ave/delta/count) on step 9520000
Bond:   1   1         1.64009e-06     6906
Angle:  1   109.47    0.00011339      3453
   9520000   131.22022     -1611.4011      0             -1347.7339     -17.543534    
SHAKE stats (type/ave/delta/count) on step 9530000
Bond:   1   1         1.22457e-06     6906
Angle:  1   109.47    9.44844e-05     3453
   9530000   132.79314     -1610.9288      0             -1344.101      -5.2512617    
SHAKE stats (type/ave/delta/count) on step 9540000
Bond:   1   1         1.50516e-06     6906
Angle:  1   109.47    0.000116357     3453
   9540000   134.58745     -1606.6478      0             -1336.2147     -17.863161    
SHAKE stats (type/ave/delta/count) on step 9550000
Bond:   1   1         1.72309e-06     6906
Angle:  1   109.47    0.000105252     3453
   9550000   132.76984     -1607.3353      0             -1340.5544     -12.521539    
SHAKE stats (type/ave/delta/count) on step 9560000
Bond:   1   1         1.50859e-06     6906
Angle:  1   109.47    0.000100171     3453
   9560000   131.29098     -1612.0633      0             -1348.2539     -9.2724735    
SHAKE stats (type/ave/delta/count) on step 9570000
Bond:   1   1         1.34846e-06     6906
Angle:  1   109.47    0.000109059     3453
   9570000   134.42741     -1615.3007      0             -1345.1891     -8.4258777    
SHAKE stats (type/ave/delta/count) on step 9580000
Bond:   1   1         1.48709e-06     6906
Angle:  1   109.47    0.000101479     3453
   9580000   130.91594     -1611.4426      0             -1348.3868      1.5336082    
SHAKE stats (type/ave/delta/count) on step 9590000
Bond:   1   1         1.57778e-06     6906
Angle:  1   109.47    0.000112864     3453
   9590000   132.05771     -1599.8179      0             -1334.4679      3.2133458    
SHAKE stats (type/ave/delta/count) on step 9600000
Bond:   1   1         1.22859e-06     6906
Angle:  1   109.47    0.000105877     3453
   9600000   133.80269     -1610.0801      0             -1341.2238     -15.580264    
SHAKE stats (type/ave/delta/count) on step 9610000
Bond:   1   1         1.27972e-06     6906
Angle:  1   109.47    0.000110067     3453
   9610000   131.87229     -1611.2324      0             -1346.2549     -7.1348079    
SHAKE stats (type/ave/delta/count) on step 9620000
Bond:   1   1         1.17813e-06     6906
Angle:  1   109.47    9.11659e-05     3453
   9620000   131.99671     -1606.5577      0             -1341.3302     -13.860137    
SHAKE stats (type/ave/delta/count) on step 9630000
Bond:   1   1         1.20583e-06     6906
Angle:  1   109.47    9.93638e-05     3453
   9630000   133.7566      -1611.6301      0             -1342.8664     -7.5922677    
SHAKE stats (type/ave/delta/count) on step 9640000
Bond:   1   1         1.47313e-06     6906
Angle:  1   109.47    0.000114588     3453
   9640000   134.65783     -1610.9616      0             -1340.3871     -9.6671439    
SHAKE stats (type/ave/delta/count) on step 9650000
Bond:   1   1         1.77669e-06     6906
Angle:  1   109.47    0.000118456     3453
   9650000   135.15773     -1609.7106      0             -1338.1315     -0.15213832   
SHAKE stats (type/ave/delta/count) on step 9660000
Bond:   1   1         1.30615e-06     6906
Angle:  1   109.47    0.000111916     3453
   9660000   134.55684     -1612.2242      0             -1341.8525     -15.40389     
SHAKE stats (type/ave/delta/count) on step 9670000
Bond:   1   1         1.52406e-06     6906
Angle:  1   109.47    9.66863e-05     3453
   9670000   134.93764     -1614.6168      0             -1343.48       -3.1480691    
SHAKE stats (type/ave/delta/count) on step 9680000
Bond:   1   1         1.17051e-06     6906
Angle:  1   109.47    9.4081e-05      3453
   9680000   133.26582     -1605.9914      0             -1338.2139     -3.5990263    
SHAKE stats (type/ave/delta/count) on step 9690000
Bond:   1   1         1.33965e-06     6906
Angle:  1   109.47    9.50567e-05     3453
   9690000   133.66965     -1616.0829      0             -1347.4939     -16.80921     
SHAKE stats (type/ave/delta/count) on step 9700000
Bond:   1   1         1.28776e-06     6906
Angle:  1   109.47    8.71554e-05     3453
   9700000   131.9073      -1612.5109      0             -1347.4631     -7.3118852    
SHAKE stats (type/ave/delta/count) on step 9710000
Bond:   1   1         1.46458e-06     6906
Angle:  1   109.47    0.000106192     3453
   9710000   133.0451      -1614.9955      0             -1347.6614     -14.082454    
SHAKE stats (type/ave/delta/count) on step 9720000
Bond:   1   1         1.35491e-06     6906
Angle:  1   109.47    9.57006e-05     3453
   9720000   133.70876     -1611.743       0             -1343.0754      7.7944488    
SHAKE stats (type/ave/delta/count) on step 9730000
Bond:   1   1         1.16526e-06     6906
Angle:  1   109.47    9.15261e-05     3453
   9730000   130.59637     -1611.4391      0             -1349.0254     -16.605059    
SHAKE stats (type/ave/delta/count) on step 9740000
Bond:   1   1         1.62268e-06     6906
Angle:  1   109.47    0.000112686     3453
   9740000   136.88717     -1613.4124      0             -1338.3583     -5.7916168    
SHAKE stats (type/ave/delta/count) on step 9750000
Bond:   1   1         1.23932e-06     6906
Angle:  1   109.47    9.39968e-05     3453
   9750000   134.80406     -1603.2453      0             -1332.3769     -12.038209    
SHAKE stats (type/ave/delta/count) on step 9760000
Bond:   1   1         1.29117e-06     6906
Angle:  1   109.47    0.000104425     3453
   9760000   134.93671     -1605.6607      0             -1334.5258     -5.44225      
SHAKE stats (type/ave/delta/count) on step 9770000
Bond:   1   1         1.3386e-06      6906
Angle:  1   109.47    0.0001189       3453
   9770000   132.85826     -1618.4815      0             -1351.5229     -4.6237072    
SHAKE stats (type/ave/delta/count) on step 9780000
Bond:   1   1         1.55237e-06     6906
Angle:  1   109.47    0.000109532     3453
   9780000   132.75019     -1616.2193      0             -1349.4779      6.052331     
SHAKE stats (type/ave/delta/count) on step 9790000
Bond:   1   1         1.23613e-06     6906
Angle:  1   109.47    9.0195e-05      3453
   9790000   132.13373     -1614.9464      0             -1349.4437     -7.9661882    
SHAKE stats (type/ave/delta/count) on step 9800000
Bond:   1   1         1.22185e-06     6906
Angle:  1   109.47    0.000110719     3453
   9800000   133.09066     -1607.9507      0             -1340.5251      5.2015302    
SHAKE stats (type/ave/delta/count) on step 9810000
Bond:   1   1         1.41405e-06     6906
Angle:  1   109.47    0.000107745     3453
   9810000   132.95335     -1607.5829      0             -1340.4333     -17.640084    
SHAKE stats (type/ave/delta/count) on step 9820000
Bond:   1   1         1.61188e-06     6906
Angle:  1   109.47    0.000101526     3453
   9820000   132.85257     -1607.9519      0             -1341.0048     -10.917287    
SHAKE stats (type/ave/delta/count) on step 9830000
Bond:   1   1         1.36731e-06     6906
Angle:  1   109.47    8.69154e-05     3453
   9830000   135.1775      -1621.409       0             -1349.7902      11.096742    
SHAKE stats (type/ave/delta/count) on step 9840000
Bond:   1   1         1.073e-06       6906
Angle:  1   109.47    0.000108567     3453
   9840000   135.95218     -1612.799       0             -1339.6236      6.3912529    
SHAKE stats (type/ave/delta/count) on step 9850000
Bond:   1   1         1.33403e-06     6906
Angle:  1   109.47    9.93962e-05     3453
   9850000   135.11843     -1616.7773      0             -1345.2773     -17.331081    
SHAKE stats (type/ave/delta/count) on step 9860000
Bond:   1   1         1.14351e-06     6906
Angle:  1   109.47    9.41324e-05     3453
   9860000   135.1112      -1610.2242      0             -1338.7386     -11.144919    
SHAKE stats (type/ave/delta/count) on step 9870000
Bond:   1   1         1.26387e-06     6906
Angle:  1   109.47    9.48305e-05     3453
   9870000   131.88686     -1616.6942      0             -1351.6874     -10.574432    
SHAKE stats (type/ave/delta/count) on step 9880000
Bond:   1   1         1.21499e-06     6906
Angle:  1   109.47    9.72613e-05     3453
   9880000   133.26542     -1602.7308      0             -1334.954      -4.1870586    
SHAKE stats (type/ave/delta/count) on step 9890000
Bond:   1   1         1.23778e-06     6906
Angle:  1   109.47    9.38143e-05     3453
   9890000   133.01642     -1610.0683      0             -1342.7919     -6.7329868    
SHAKE stats (type/ave/delta/count) on step 9900000
Bond:   1   1         1.43574e-06     6906
Angle:  1   109.47    0.000134033     3453
   9900000   132.87956     -1613.4493      0             -1346.4479     -9.5444696    
SHAKE stats (type/ave/delta/count) on step 9910000
Bond:   1   1         1.19683e-06     6906
Angle:  1   109.47    0.000110807     3453
   9910000   135.10831     -1612.0006      0             -1340.5208     -8.1701701    
SHAKE stats (type/ave/delta/count) on step 9920000
Bond:   1   1         1.15382e-06     6906
Angle:  1   109.47    0.000107668     3453
   9920000   133.70109     -1612.2746      0             -1343.6225     -14.408269    
SHAKE stats (type/ave/delta/count) on step 9930000
Bond:   1   1         1.14332e-06     6906
Angle:  1   109.47    0.000103478     3453
   9930000   133.00126     -1620.3858      0             -1353.1399     -8.7217042    
SHAKE stats (type/ave/delta/count) on step 9940000
Bond:   1   1         1.2254e-06      6906
Angle:  1   109.47    9.82652e-05     3453
   9940000   133.49361     -1618.8313      0             -1350.596       5.3050058    
SHAKE stats (type/ave/delta/count) on step 9950000
Bond:   1   1         1.37362e-06     6906
Angle:  1   109.47    9.54341e-05     3453
   9950000   134.42517     -1620.429       0             -1350.3219     -11.415292    
SHAKE stats (type/ave/delta/count) on step 9960000
Bond:   1   1         1.67688e-06     6906
Angle:  1   109.47    9.57237e-05     3453
   9960000   132.5556      -1613.5887      0             -1347.2382     -16.669569    
SHAKE stats (type/ave/delta/count) on step 9970000
Bond:   1   1         1.30966e-06     6906
Angle:  1   109.47    9.28112e-05     3453
   9970000   134.19433     -1604.6153      0             -1334.972      -16.240039    
SHAKE stats (type/ave/delta/count) on step 9980000
Bond:   1   1         1.20948e-06     6906
Angle:  1   109.47    9.6735e-05      3453
   9980000   134.92966     -1620.6287      0             -1349.5079     -11.537697    
SHAKE stats (type/ave/delta/count) on step 9990000
Bond:   1   1         1.38912e-06     6906
Angle:  1   109.47    9.66355e-05     3453
   9990000   132.54247     -1614.1508      0             -1347.8267     -6.1173152    
SHAKE stats (type/ave/delta/count) on step 10000000
Bond:   1   1         1.15292e-06     6906
Angle:  1   109.47    9.41304e-05     3453
  10000000   135.89315     -1615.7392      0             -1342.6824     -8.0898808    
Loop time of 12872.2 on 640 procs for 2000000 steps with 18999 atoms

Performance: 13.424 ns/day, 1.788 hours/ns, 155.373 timesteps/s, 2.952 Matom-step/s
100.0% CPU use with 640 MPI tasks x 1 OpenMP threads

MPI task timing breakdown:
Section |  min time  |  avg time  |  max time  |%varavg| %total
---------------------------------------------------------------
Pair    | 0.1921     | 156.57     | 4256.3     |4322.1 |  1.22
Bond    | 0.15695    | 0.32805    | 0.62574    |  17.0 |  0.00
Kspace  | 7153.1     | 11142      | 11380      | 505.3 | 86.56
Neigh   | 473.34     | 496.39     | 503.62     |  36.1 |  3.86
Comm    | 7.3979     | 108.09     | 574.04     |1395.0 |  0.84
Output  | 50.265     | 156.97     | 220.75     | 325.9 |  1.22
Modify  | 313.72     | 706.93     | 872.44     | 476.2 |  5.49
Other   |            | 105.2      |            |       |  0.82

Nlocal:        29.6859 ave         614 max           0 min
Histogram: 547 62 5 3 3 2 1 6 4 7
Nghost:         299.07 ave        4061 max           0 min
Histogram: 454 115 19 23 11 6 4 2 4 2
Neighs:        4865.95 ave      163401 max           0 min
Histogram: 611 5 4 2 2 3 4 3 0 6

Total # of neighbors = 3114208
Ave neighs/atom = 163.91431
Ave special neighs/atom = 1.0904784
Neighbor list builds = 104348
Dangerous builds = 0
undump DUMP4
write_restart nvt_prod.restart.*
System init for write_restart ...
PPPM initialization ...
  using 12-bit tables for long-range coulomb (src/kspace.cpp:342)
  G vector (1/distance) = 0.29613742
  grid = 90 90 90
  stencil order = 5
  estimated absolute RMS force accuracy = 0.00016052161
  estimated relative force accuracy = 1.1147609e-05
  using double precision KISS FFT
  3d grid and FFT values/proc = 5184 1350
Generated 0 of 3 mixed pair_coeff terms from geometric mixing rule
write_data nvt_prod_final.lammps-data pair ij
System init for write_data ...
PPPM initialization ...
  using 12-bit tables for long-range coulomb (src/kspace.cpp:342)
  G vector (1/distance) = 0.29613742
  grid = 90 90 90
  stencil order = 5
  estimated absolute RMS force accuracy = 0.00016052161
  estimated relative force accuracy = 1.1147609e-05
  using double precision KISS FFT
  3d grid and FFT values/proc = 5184 1350
Generated 0 of 3 mixed pair_coeff terms from geometric mixing rule

Total wall time: 17:48:10
