LAMMPS (4 Feb 2025)
OMP_NUM_THREADS environment is not set. Defaulting to 1 thread. (src/comm.cpp:99)
  using 1 OpenMP thread(s) per MPI task
# LAMMPS script for continuing NVT simulation

atom_modify map yes
newton      on

read_restart nvt_prod.restart.880000
Reading restart file ...
  restart file = 4 Feb 2025, LAMMPS = 4 Feb 2025
  restoring atom style full from restart
  orthogonal box = (0 0 0) to (154.77804 148.93524 151.07317)
  16 by 8 by 8 MPI processor grid
  pair style symmetrix/mace stores no restart info
  11640 atoms
Finding 1-2 1-3 1-4 neighbors ...
  special bond factors lj:    0        0        0       
  special bond factors coul:  0        0        0       
     0 = max # of 1-2 neighbors
     0 = max # of 1-3 neighbors
     0 = max # of 1-4 neighbors
     1 = max # of special neighbors
  special bonds CPU = 4.046 seconds
  read_restart CPU = 4.194 seconds

pair_style  symmetrix/mace
pair_coeff  * * ../../../00-common/models/ch2o-dens-inv_swa-1-6-8.json C H O
Loading MACE model from '../../../00-common/models/ch2o-dens-inv_swa-1-6-8.json' ... success
  mapping LAMMPS type 1 (C) to MACE type 1
  mapping LAMMPS type 2 (H) to MACE type 0
  mapping LAMMPS type 3 (O) to MACE type 2

group graphene type 1
8640 atoms in group graphene
group H2O type 2 3
3000 atoms in group H2O

thermo 1000

######### NVT production for 80 ps #############

dump DUMP1 all atom 100 nvt_prod_11.lammpstrj
timestep 0.001
fix NVT1 graphene nvt temp 300 300 0.1
Resetting global fix info from restart file:
  fix style: nvt, fix ID: NVT1
fix NVT2 H2O nvt temp 300 300 0.1
Resetting global fix info from restart file:
  fix style: nvt, fix ID: NVT2
run 80000
All restart file global fix info was re-assigned
Neighbor list info ...
  update: every = 1 steps, delay = 0 steps, check = yes
  max neighbors/atom: 2000, page size: 100000
  master list distance cutoff = 8
  ghost atom cutoff = 8
  binsize = 4, bins = 39 38 38
  1 neighbor lists, perpetual/occasional/extra = 1 0 0
  (1) pair symmetrix/mace, perpetual
      attributes: full, newton on
      pair build: full/bin
      stencil: full/bin/3d
      bin: standard
Per MPI rank memory allocation (min/avg/max) = 5.921 | 6.209 | 8.192 Mbytes
   Step          Temp          E_pair         E_mol          TotEng         Press     
    880000   300.09636     -1809923.2      0             -1809471.7     -599.14051    
    881000   299.50828     -1809919.9      0             -1809469.3     -601.04534    
    882000   301.39664     -1809919.4      0             -1809466       -604.27636    
    883000   300.34838     -1809921.2      0             -1809469.3     -615.42179    
    884000   298.92748     -1809920.3      0             -1809470.6     -628.89802    
    885000   298.50362     -1809917.5      0             -1809468.4     -599.59517    
    886000   304.67788     -1809917.9      0             -1809459.6     -596.75762    
    887000   300.5599      -1809920.9      0             -1809468.7     -603.52258    
    888000   295.24493     -1809916.2      0             -1809472.1     -600.51339    
    889000   303.72585     -1809922.9      0             -1809465.9     -589.01665    
    890000   302.55885     -1809913.1      0             -1809457.9     -592.80976    
    891000   300.30975     -1809921.5      0             -1809469.7     -604.23341    
    892000   299.14836     -1809921.5      0             -1809471.5     -620.68366    
    893000   300.65415     -1809923.3      0             -1809471       -610.06077    
    894000   300.1601      -1809924.3      0             -1809472.7     -595.60104    
    895000   301.94074     -1809920.1      0             -1809465.9     -601.17371    
    896000   300.918       -1809922        0             -1809469.3     -597.56064    
    897000   299.38628     -1809923.9      0             -1809473.5     -603.37991    
    898000   301.19324     -1809923.9      0             -1809470.8     -596.77773    
    899000   304.27993     -1809917.2      0             -1809459.5     -599.48952    
    900000   298.77662     -1809914.7      0             -1809465.3     -631.1032     
    901000   295.3669      -1809914.9      0             -1809470.5     -605.32884    
    902000   298.94847     -1809921.5      0             -1809471.7     -643.07665    
    903000   301.87991     -1809914.2      0             -1809460       -601.87715    
    904000   300.96462     -1809917.8      0             -1809465       -619.46407    
    905000   298.42062     -1809921.6      0             -1809472.6     -618.82285    
    906000   301.17904     -1809915.6      0             -1809462.4     -621.03438    
    907000   298.31538     -1809918.3      0             -1809469.5     -623.2262     
    908000   302.24941     -1809923.9      0             -1809469.2     -617.14113    
    909000   298.8838      -1809917.1      0             -1809467.5     -625.17265    
    910000   301.40345     -1809917.4      0             -1809464       -592.78971    
    911000   299.58401     -1809921.7      0             -1809471       -604.34992    
    912000   299.7727      -1809918.2      0             -1809467.2     -619.97713    
    913000   301.69409     -1809918.2      0             -1809464.3     -604.7293     
    914000   299.32545     -1809921.3      0             -1809471       -605.08052    
    915000   298.87387     -1809922.5      0             -1809472.9     -599.61757    
    916000   300.26302     -1809915.8      0             -1809464.1     -605.33748    
    917000   301.04517     -1809915        0             -1809462.1     -602.26227    
    918000   297.85303     -1809916.1      0             -1809468       -611.74046    
    919000   299.61947     -1809919.7      0             -1809468.9     -607.89228    
    920000   300.20621     -1809915        0             -1809463.3     -597.97334    
    921000   296.1516      -1809920.9      0             -1809475.3     -617.01538    
    922000   296.64418     -1809921.6      0             -1809475.3     -613.55034    
    923000   300.98794     -1809919.9      0             -1809467.1     -600.84131    
    924000   300.59734     -1809911.6      0             -1809459.4     -626.55076    
    925000   299.19184     -1809910.6      0             -1809460.5     -616.28262    
    926000   304.62984     -1809916.6      0             -1809458.3     -596.40203    
    927000   296.66651     -1809922        0             -1809475.7     -589.35828    
    928000   302.52552     -1809916.1      0             -1809460.9     -608.70871    
    929000   301.83277     -1809920        0             -1809465.9     -576.0127     
    930000   298.12465     -1809918.5      0             -1809470       -625.13387    
    931000   302.1724      -1809917.4      0             -1809462.8     -598.03305    
    932000   296.6848      -1809923.4      0             -1809477.1     -587.94903    
    933000   298.2476      -1809911.9      0             -1809463.2     -601.70628    
    934000   301.63971     -1809916        0             -1809462.2     -611.47912    
    935000   299.91763     -1809921.1      0             -1809469.9     -586.89628    
    936000   300.60529     -1809917.6      0             -1809465.4     -609.51716    
    937000   297.45324     -1809913.7      0             -1809466.2     -588.42666    
    938000   299.22293     -1809915.6      0             -1809465.4     -628.87015    
    939000   297.38365     -1809924.4      0             -1809477       -614.64924    
    940000   301.68764     -1809913.2      0             -1809459.3     -608.81583    
    941000   299.59512     -1809917.9      0             -1809467.1     -606.61747    
    942000   297.61243     -1809919.7      0             -1809472       -602.78154    
    943000   298.6261      -1809916        0             -1809466.7     -603.63783    
    944000   298.29816     -1809913.3      0             -1809464.5     -622.456      
    945000   303.00173     -1809925.7      0             -1809469.8     -607.09641    
    946000   300.55386     -1809911.4      0             -1809459.3     -611.88224    
    947000   299.80039     -1809919.7      0             -1809468.7     -603.64102    
    948000   301.14315     -1809924.6      0             -1809471.5     -607.67042    
    949000   301.74755     -1809919.8      0             -1809465.9     -618.54048    
    950000   296.43195     -1809920.2      0             -1809474.3     -597.53301    
    951000   300.53316     -1809915.8      0             -1809463.7     -612.00367    
    952000   300.99495     -1809921.1      0             -1809468.3     -604.44304    
    953000   299.87723     -1809924.1      0             -1809473       -609.2642     
    954000   303.74983     -1809921.2      0             -1809464.2     -604.28939    
    955000   297.99273     -1809921.7      0             -1809473.3     -581.9997     
    956000   295.23477     -1809923.6      0             -1809479.4     -610.37587    
    957000   298.86887     -1809919.7      0             -1809470.1     -585.73215    
    958000   298.7012      -1809921        0             -1809471.7     -592.41664    
    959000   297.23701     -1809919.7      0             -1809472.5     -611.96718    
    960000   299.72076     -1809921.5      0             -1809470.6     -583.33173    
Loop time of 59110.3 on 1024 procs for 80000 steps with 11640 atoms

Performance: 0.117 ns/day, 205.244 hours/ns, 1.353 timesteps/s, 15.754 katom-step/s
100.0% CPU use with 1024 MPI tasks x 1 OpenMP threads

MPI task timing breakdown:
Section |  min time  |  avg time  |  max time  |%varavg| %total
---------------------------------------------------------------
Pair    | 1501.2     | 5389.8     | 17236      |5237.9 |  9.12
Bond    | 0.004758   | 0.0076268  | 0.013147   |   1.5 |  0.00
Neigh   | 0.06516    | 0.13606    | 0.8419     |  37.4 |  0.00
Comm    | 17.119     | 1854.7     | 8249.5     |3131.0 |  3.14
Output  | 0.71456    | 4.6138     | 8.7333     | 110.7 |  0.01
Modify  | 39258      | 51855      | 57556      |2077.5 | 87.73
Other   |            | 6.327      |            |       |  0.01

Nlocal:        11.3672 ave         307 max           0 min
Histogram: 882 57 63 12 2 2 1 1 2 2
Nghost:        98.2939 ave        1606 max           0 min
Histogram: 761 105 122 9 9 8 7 0 1 2
Neighs:              0 ave           0 max           0 min
Histogram: 1024 0 0 0 0 0 0 0 0 0
FullNghs:      1201.96 ave       59982 max           0 min
Histogram: 994 8 10 4 1 1 2 1 1 2

Total # of neighbors = 1230802
Ave neighs/atom = 105.739
Ave special neighs/atom = 0
Neighbor list builds = 3628
Dangerous builds = 0

write_restart nvt_prod.restart.*
System init for write_restart ...
write_data nvt_prod_final.lammps-data
System init for write_data ...

Total wall time: 16:25:31
