LAMMPS data file via write_data, version 4 Feb 2025, timestep = 960000, units = metal

11640 atoms
3 atom types

0 154.77803999999998 xlo xhi
0 148.9352384310711 ylo yhi
0 151.07316997686289 zlo zhi

Masses

1 12.01099999691024
2 1.007999999740698
3 15.99899999588435

Atoms # full

2609 0 1 0 8.500663336591623 15.43108475813106 72.22778324761539 -6 -5 15
2375 0 1 0 6.343222389875973 16.714640323532063 72.47140440067953 -6 -5 15
2131 0 1 0 2.0601068873840225 14.13766529073935 72.44516212610246 -6 -5 15
2106 0 1 0 1.34027611605859 0.4632801326537897 72.51110473848027 -6 -5 15
2372 0 1 0 7.7882714907615265 14.23575799984732 72.46728238816374 -6 -5 15
2111 0 1 0 2.051486174091946 1.7304644654297843 72.4484638688976 -6 -5 15
2613 0 1 0 8.54507487420677 17.910034585022657 72.17289451076225 -6 -5 15
2110 0 1 0 1.3638375970530654 2.9776629514533135 72.40852915490169 -6 -5 15
2376 0 1 0 7.803405379526421 16.684716969666937 72.23889850748346 -6 -5 15
2112 0 1 0 3.492194811455164 1.7114576105321178 72.44666393134507 -6 -5 15
2374 0 1 0 5.625324818215524 17.943379678710162 72.44161225695791 -6 -5 15
2346 0 1 0 5.653987242108925 0.4699687024588074 72.47907144734539 -6 -5 15
2345 0 1 0 4.242350935289886 0.5229073700062913 72.55796834326061 -6 -5 15
2351 0 1 0 6.369090115729946 1.7192572041278233 72.40792053049402 -6 -5 15
2350 0 1 0 5.591570214980734 2.954859979318749 72.29337643636333 -6 -5 15
2349 0 1 0 4.158458794344725 2.9848281246440256 72.33107874275592 -6 -5 15
2134 0 1 0 1.3244606822606282 17.864089887478592 72.54615668291918 -6 -5 15
2352 0 1 0 7.8171576177714 1.7435786685131751 72.25459201398955 -6 -5 15
2589 0 1 0 8.506686262796078 3.024439513675427 72.24553250802016 -6 -5 15
2585 0 1 0 8.503837075209406 0.5230759442612112 72.18175163689837 -6 -5 15
2132 0 1 0 3.4934621102511767 14.202898244940537 72.54725679109653 -6 -5 15
2135 0 1 0 2.013404096898104 16.636537056325942 72.48938359004133 -6 -5 15
2115 0 1 0 2.058744797310592 4.2283254919057915 72.28881238696243 -6 -5 15
2114 0 1 0 1.3713733075769607 5.464716680048896 72.35407074408107 -6 -5 15
2370 0 1 0 5.5787147134928 15.463664957222539 72.60769238861491 -6 -5 15
2119 0 1 0 2.0622137844166937 6.70001203697177 72.37035354984013 -6 -5 15
2116 0 1 0 3.494186863929901 4.185479132655959 72.26191019709319 -6 -5 15
2120 0 1 0 3.4799358008500962 6.6926072375376044 72.34651859759853 -6 -5 15
2373 0 1 0 4.179231976171173 17.891705979050474 72.5182465429635 -6 -5 15
2118 0 1 0 1.316307657746702 7.978269404177541 72.33255631673646 -6 -5 15
2354 0 1 0 5.663486352143925 5.419457533231893 72.24310940112194 -6 -5 15
2353 0 1 0 4.214343271093224 5.451879956462941 72.33504901716269 -6 -5 15
2359 0 1 0 6.359960490246743 6.7140097759128565 72.25882896971542 -6 -5 15
2355 0 1 0 6.38788338297235 4.215250858947374 72.225078651799 -6 -5 15
2356 0 1 0 7.785684929910611 4.256465023727571 72.22196829263594 -6 -5 15
2360 0 1 0 7.751349811775903 6.751695248285927 72.20309249130514 -6 -5 15
2357 0 1 0 4.183281566639529 7.974878634315319 72.36388254287982 -6 -5 15
2358 0 1 0 5.60119981026976 7.965404920928937 72.32388679842856 -6 -5 15
2597 0 1 0 8.468495519874613 7.99488874051507 72.13528597743809 -6 -5 15
2593 0 1 0 8.495813328399588 5.506018647796796 72.13122639329532 -6 -5 15
2136 0 1 0 3.478313488799833 16.70152306584802 72.52582929841687 -6 -5 15
2371 0 1 0 6.31829829757164 14.219149907383256 72.57892561187774 -6 -5 15
2122 0 1 0 1.3459637434314826 10.4942821558097 72.31088691066095 -6 -5 15
2123 0 1 0 2.023537102700222 9.213916274139788 72.2937711733904 -6 -5 15
2369 0 1 0 4.205575432730921 15.433273684765595 72.61593531487227 -6 -5 15
2127 0 1 0 2.040531940568447 11.72838212721059 72.38328627645286 -6 -5 15
2128 0 1 0 3.4829050213336377 11.68357114382275 72.46945850877816 -6 -5 15
2124 0 1 0 3.4790128349595952 9.185683355908012 72.3822060696843 -6 -5 15
2130 0 1 0 1.3121403222918655 15.338450010361916 72.45535013950746 -6 -5 15
2126 0 1 0 1.3294667856865492 12.961425984040108 72.34254581093546 -6 -5 15
2367 0 1 0 6.345269472986486 11.710982790981612 72.50490588795803 -6 -5 15
2363 0 1 0 6.371178757281914 9.188716468475887 72.3653254228429 -6 -5 15
2361 0 1 0 4.208330049030893 10.403827915468856 72.49465450277287 -6 -5 15
2362 0 1 0 5.6423060880282385 10.449526485326494 72.49238494239431 -6 -5 15
2364 0 1 0 7.765002340271362 9.171015965826305 72.20627367738373 -6 -5 15
2368 0 1 0 7.757081357107781 11.699906259468989 72.3327789833995 -6 -5 15
2366 0 1 0 5.64364443608625 12.953698161878169 72.59878656321573 -6 -5 15
2365 0 1 0 4.24060105537102 12.956699564569648 72.62377390113522 -6 -5 15
2601 0 1 0 8.434965708460073 10.431715273262652 72.1710697615915 -6 -5 15
2605 0 1 0 8.513079583481883 12.969989512314855 72.29258592666389 -6 -5 15
2163 0 1 0 6.33207794528479 34.075028108147414 72.30932385452033 -6 -6 15
2401 0 1 0 8.472045232279267 35.29621368409352 72.2897878164565 -6 -6 15
2397 0 1 0 4.131899024791881 32.80049712373893 72.512049789926 -6 -5 15
2139 0 1 0 2.003507501008589 19.101161325723634 72.46352848577459 -6 -5 15
1922 0 1 0 1.2535386776684567 35.266695834114564 72.53650376530659 -6 -6 15
2138 0 1 0 1.3243562322671243 20.35479984171677 72.45074996601934 -6 -5 15
2637 0 1 0 8.436065583254509 32.79404801513195 72.3710195523107 -6 -5 15
2143 0 1 0 2.0581362207366873 21.595287486360203 72.46594929553567 -6 -5 15
2140 0 1 0 3.4490317111844266 19.094414358752307 72.47443760205034 -6 -5 15
2144 0 1 0 3.4488050114315087 21.58619240348277 72.45104024305073 -6 -5 15
1927 0 1 0 2.042147411837527 36.54821819149343 72.44250709131246 -6 -6 15
2398 0 1 0 5.575553607553693 32.78265971060589 72.33748543939905 -6 -5 15
2377 0 1 0 4.161146319286788 20.34653762911503 72.41636341881936 -6 -5 15
2378 0 1 0 5.622560243191413 20.403809258641207 72.40517372065275 -6 -5 15
2379 0 1 0 6.307446991863951 19.17351806636931 72.26595867818317 -6 -5 15
2383 0 1 0 6.31107229883592 21.637036524439917 72.31296439830787 -6 -5 15
2384 0 1 0 7.7696872368474335 21.65278728478706 72.33856003989544 -6 -5 15
2380 0 1 0 7.772510593143757 19.146640578706847 72.20114379759274 -6 -5 15
1928 0 1 0 3.4443152306150595 36.55426437503417 72.49668685428045 -6 -6 15
2617 0 1 0 8.455332246996333 20.39241214949947 72.20259285383443 -6 -5 15
2164 0 1 0 7.746026680323794 34.04322379741557 72.31548055962647 -6 -6 15
2161 0 1 0 4.102461273463889 35.29504670245644 72.50745645657128 -6 -6 15
2142 0 1 0 1.3160193321520746 22.8463615708411 72.42663631447662 -6 -5 15
2147 0 1 0 2.0521295245920004 24.08823723579755 72.417120659477 -6 -5 15
2158 0 1 0 1.3120670679218833 32.77781531298385 72.58523636317389 -6 -5 15
2146 0 1 0 1.2683971617550815 25.349534817401988 72.51740763834599 -6 -5 15
2148 0 1 0 3.4818192229237988 24.08776102376312 72.50678264523552 -6 -5 15
2162 0 1 0 5.545733613473209 35.2747015631552 72.4083741981523 -6 -6 15
2151 0 1 0 2.001460773074931 26.588763425643325 72.50496371913505 -6 -5 15
2152 0 1 0 3.3913922771386242 26.598169851139097 72.48135788269376 -6 -5 15
2381 0 1 0 4.157213867781816 22.868966508491972 72.46273651315087 -6 -5 15
2382 0 1 0 5.59049923299725 22.86884676563003 72.40112291367959 -6 -5 15
2386 0 1 0 5.593803562630138 25.363730787556808 72.48039820251653 -6 -5 15
2385 0 1 0 4.193186492902656 25.38092937482783 72.4874236959522 -6 -5 15
2387 0 1 0 6.326579723207929 24.10971936114421 72.38053688012543 -6 -5 15
2388 0 1 0 7.7382877164296335 24.171023914934697 72.34029790537541 -6 -5 15
2391 0 1 0 6.353319169993115 26.586887510871037 72.44315215072585 -6 -5 15
2392 0 1 0 7.763485568126166 26.632424101480936 72.48022893411293 -6 -5 15
2625 0 1 0 8.459751192196046 25.37368269764324 72.3118490967858 -6 -5 15
2621 0 1 0 8.45491308809196 22.87698022563835 72.18024143085584 -6 -5 15
2167 0 1 0 6.253807883288203 36.52437150183081 72.40089675977677 -6 -6 15
1923 0 1 0 2.0065002792126467 34.04979486760849 72.57248575097927 -6 -6 15
2150 0 1 0 1.3260795518472104 27.849059635643595 72.6472618126671 -6 -5 15
2155 0 1 0 1.9843763250143998 29.05383007409174 72.6623650637448 -6 -5 15
2168 0 1 0 7.703756067788681 36.54293460651799 72.31907826784807 -6 -6 15
2154 0 1 0 1.2888147716504395 30.293826234781722 72.65488442872116 -6 -5 15
2156 0 1 0 3.421831416977954 29.08032819997026 72.58480963921727 -6 -5 15
1924 0 1 0 3.4047088466748816 34.06585254556122 72.5339625183423 -6 -6 15
2159 0 1 0 2.0175590358105886 31.517914490028822 72.56153861572975 -6 -5 15
2160 0 1 0 3.458236102687119 31.525760335118463 72.44740219162266 -6 -5 15
2394 0 1 0 5.60647436973902 30.32051780863314 72.42365442914291 -6 -5 15
2393 0 1 0 4.157071639360634 30.303916552598103 72.4234829296629 -6 -5 15
2390 0 1 0 5.602247189330355 27.86076083819462 72.49010531028706 -6 -5 15
2389 0 1 0 4.123794066000235 27.845887506505438 72.51391828315319 -6 -5 15
2395 0 1 0 6.335814469355477 29.091865842640253 72.46169679825998 -6 -5 15
2396 0 1 0 7.765116400683272 29.070886436892373 72.49887653735614 -6 -5 15
2399 0 1 0 6.2619757308025195 31.540105888433565 72.3889930825175 -6 -5 15
2400 0 1 0 7.748960244321504 31.569709170544545 72.42252308580285 -6 -5 15
2633 0 1 0 8.443681181492458 30.32398306830854 72.46270838575845 -6 -5 15
2629 0 1 0 8.522194832873195 27.829310822888583 72.4912069831684 -6 -5 15
2190 0 1 0 5.581892388067083 52.67113241492029 71.99003297583864 -6 -6 15
2433 0 1 0 8.435868236169961 55.16370707016381 71.73800536673771 -6 -6 15
1951 0 1 0 2.011365338198822 51.46798809180292 72.50358466635863 -6 -6 15
1926 0 1 0 1.2623296947604639 37.75877836859572 72.38854730741912 -6 -6 15
2191 0 1 0 6.269907299012542 51.453442383680475 72.02360663051817 -6 -6 15
1931 0 1 0 1.9729023684377656 38.97511291420545 72.41007406484181 -6 -6 15
1955 0 1 0 2.014313684759622 53.89119266111236 72.18724598354973 -6 -6 15
1930 0 1 0 1.2285331875566485 40.243124025823164 72.5004342708853 -6 -6 15
1952 0 1 0 3.428736176275452 51.39052422482497 72.3539416570177 -6 -6 15
1932 0 1 0 3.414381483181586 38.99173126974665 72.40493348339373 -6 -6 15
2165 0 1 0 4.175593100895457 37.79004897406854 72.34037953801415 -6 -6 15
2166 0 1 0 5.588518015496666 37.82121925411391 72.4050877599265 -6 -6 15
2171 0 1 0 6.3509281359027066 39.0329922397907 72.43836972393485 -6 -6 15
1956 0 1 0 3.448523135439926 53.871352391761036 72.08933374066761 -6 -6 15
2169 0 1 0 4.139435999064012 40.21600921004705 72.3455641480451 -6 -6 15
2170 0 1 0 5.56728684306115 40.2441881471618 72.42598915344615 -6 -6 15
2172 0 1 0 7.717407054136626 39.09848626015118 72.44213105730846 -6 -6 15
1950 0 1 0 1.2882820845559102 52.69758760114213 72.46343758525695 -6 -6 15
2405 0 1 0 8.41906376673911 37.79930234606474 72.37292253854447 -6 -6 15
2409 0 1 0 8.421121316239988 40.30440588295073 72.32270875217654 -6 -6 15
2429 0 1 0 8.47650796079319 52.66083490193543 71.7884847223278 -6 -6 15
2193 0 1 0 4.175599228109669 55.09568886691788 71.81846540895246 -6 -6 15
1934 0 1 0 1.3234345940134116 42.72663515133738 72.52592085140341 -6 -6 15
2192 0 1 0 7.7299815619790095 51.44148652585057 71.72674226542468 -6 -6 15
1939 0 1 0 2.0279943855851426 43.94598295901369 72.47992763481125 -6 -6 15
1935 0 1 0 2.0014120397906745 41.45927134769304 72.45185498289834 -6 -6 15
1936 0 1 0 3.4516730086747236 41.432626925624426 72.32751257388547 -6 -6 15
1940 0 1 0 3.467585369960621 43.976975509847506 72.29669883555776 -6 -6 15
2195 0 1 0 6.298873633683218 53.89672605716523 71.83064211307311 -6 -6 15
1938 0 1 0 1.290981115481244 45.204289000632244 72.42358754813117 -6 -6 15
2175 0 1 0 6.317676664380665 41.469738522841354 72.31747300314848 -6 -6 15
2179 0 1 0 6.287182810092022 43.96199828985101 72.05207830941146 -6 -6 15
2173 0 1 0 4.166463067765683 42.73220625625377 72.27265149419614 -6 -6 15
2174 0 1 0 5.595667933928364 42.73167754687678 72.25440206730758 -6 -6 15
2180 0 1 0 7.736287006797513 43.960639030342016 71.87600406043184 -6 -6 15
2176 0 1 0 7.796252149529241 41.53504461347455 72.21162531078238 -6 -6 15
2178 0 1 0 5.580108770944144 45.237702355710695 72.09611910210849 -6 -6 15
2177 0 1 0 4.162639403821855 45.1859456009502 72.28592811595209 -6 -6 15
2417 0 1 0 8.442274535359998 45.18577029532656 71.79381639335456 -6 -6 15
2413 0 1 0 8.470468414643062 42.72772144391498 71.98379814618863 -6 -6 15
2196 0 1 0 7.741987243407691 53.88722849564233 71.71010684495829 -6 -6 15
2194 0 1 0 5.61553797766013 55.12447985461392 71.7582822128207 -6 -6 15
1942 0 1 0 1.2925505804274957 47.73424909082713 72.38752801136874 -6 -6 15
1943 0 1 0 1.9931350746344951 46.448260098964305 72.48199521628892 -6 -6 15
2189 0 1 0 4.1447916462254035 52.653796262689525 72.17154606696833 -6 -6 15
1947 0 1 0 1.9934281371687652 48.912779602028685 72.55543615880309 -6 -6 15
1948 0 1 0 3.441301751028902 48.90048877325733 72.42963894317289 -6 -6 15
1944 0 1 0 3.4369480199012474 46.45036305815912 72.39529419544874 -6 -6 15
1954 0 1 0 1.281805905074378 55.17094607067072 72.11719280690136 -6 -6 15
1946 0 1 0 1.282925200254402 50.2055961583655 72.58564990605231 -6 -6 15
2187 0 1 0 6.288859903926285 48.96416979868487 71.88575110717518 -6 -6 15
2183 0 1 0 6.320545308203586 46.47475610163983 71.92457991145194 -6 -6 15
2181 0 1 0 4.143204212769818 47.68484175784398 72.30605727019571 -6 -6 15
2182 0 1 0 5.562882206097347 47.73245106404329 71.99210521585258 -6 -6 15
2188 0 1 0 7.722018834204531 48.95642607476184 71.71878029014867 -6 -6 15
2184 0 1 0 7.708373400221567 46.440624949935454 71.76839848376184 -6 -6 15
2185 0 1 0 4.150220755415096 50.178988686944955 72.37913796155642 -6 -6 15
2186 0 1 0 5.537889651930039 50.17124790685984 72.03883851834308 -6 -6 15
2421 0 1 0 8.432915388146895 47.68984821908996 71.70447522484484 -6 -6 15
2425 0 1 0 8.462044012178248 50.2076044178801 71.68332076992832 -6 -6 15
2223 0 1 0 6.333810360897249 71.35315758430566 71.55729849682221 -6 -6 15
2218 0 1 0 5.672210007710496 70.0799790435898 71.53148629685519 -6 -6 15
2227 0 1 0 6.383572846241176 73.79439667535755 71.73257266124101 -6 -6 15
1959 0 1 0 1.9760994672272683 56.380125327346946 71.96111025623709 -6 -6 15
2217 0 1 0 4.24315677631782 70.03250617137162 71.68326510007681 -6 -6 15
1958 0 1 0 1.2690292004758408 57.647310934449 72.01701159543138 -6 -6 15
2222 0 1 0 5.633285172102242 72.56354188434132 71.61274158363119 -6 -6 15
1963 0 1 0 2.0003858941777923 58.87933407413896 71.98606455350244 -6 -6 15
1960 0 1 0 3.4739952042815605 56.33199480951007 71.85447501456697 -6 -6 15
1964 0 1 0 3.4547588041850377 58.850054857240245 71.87077012283281 -6 -6 15
1978 0 1 0 1.3450829865637928 70.02537357844994 71.83215977110007 -6 -6 15
2461 0 1 0 8.471041708159946 72.57083657763282 71.59503547425373 -6 -6 15
2197 0 1 0 4.137461307708199 57.575958102404684 71.83116615979645 -6 -6 15
2198 0 1 0 5.561870636202342 57.593768866463456 71.69591718794662 -6 -6 15
2199 0 1 0 6.272530021335657 56.373504842068286 71.75682622174902 -6 -6 15
2203 0 1 0 6.324887557788266 58.820774710647505 71.59345132889263 -6 -6 15
2204 0 1 0 7.765819650949331 58.83821541261664 71.57462042768623 -6 -6 15
2200 0 1 0 7.72180187691614 56.381672940250304 71.6171204517087 -6 -6 15
1983 0 1 0 2.0890065664296724 71.28176168516309 71.75442912410284 -6 -6 15
2437 0 1 0 8.49505274389744 57.57133272150668 71.58610051319417 -6 -6 15
2228 0 1 0 7.788267311442703 73.78492271369993 71.62197072618284 -6 -6 15
1984 0 1 0 3.5519967223684015 71.3216881976354 71.68526152964598 -6 -6 15
1962 0 1 0 1.2436864887560035 60.14022731430012 72.00247084983839 -6 -6 15
1988 0 1 0 3.461679719921903 73.76527275846477 71.89549671908516 -6 -6 15
1966 0 1 0 1.3329268115313107 62.602549729754294 71.9977864218856 -6 -6 15
1967 0 1 0 2.1126809748363584 61.316100355497284 72.01792590770215 -6 -6 15
1968 0 1 0 3.51246393014853 61.31894398431563 71.97398345049575 -6 -6 15
2457 0 1 0 8.486803871438918 70.02475168776536 71.56888546787212 -6 -6 15
1971 0 1 0 2.067696534141634 63.85311573487045 72.03588353367957 -6 -6 15
1972 0 1 0 3.520572801583192 63.816230796636525 71.94676697379029 -6 -6 15
2207 0 1 0 6.3453135796277955 61.32873149235755 71.67293428535596 -6 -6 15
2202 0 1 0 5.656894479878696 60.052747796118176 71.76111193623909 -6 -6 15
2201 0 1 0 4.240084479798754 60.04360673431107 71.8873382570461 -6 -6 15
2205 0 1 0 4.18708583401818 62.59141677985055 71.84486783809534 -6 -6 15
2206 0 1 0 5.620606713909512 62.57914930295748 71.6592125968889 -6 -6 15
2208 0 1 0 7.77122976445704 61.26325308883446 71.66943482637438 -6 -6 15
2211 0 1 0 6.339922942148888 63.855434653704926 71.60149720621372 -6 -6 15
2212 0 1 0 7.792988916803522 63.791213436636504 71.5659437554205 -6 -6 15
2445 0 1 0 8.47903518859287 62.53363093762073 71.60202113818237 -6 -6 15
2441 0 1 0 8.48206582537213 60.036717202883786 71.66686793936195 -6 -6 15
1987 0 1 0 2.044896063970949 73.75127394938893 71.88313787778732 -6 -6 15
2221 0 1 0 4.234106622269334 72.59752073291025 71.71255581297778 -6 -6 15
1975 0 1 0 2.063666466302567 66.3429228022813 71.87721770176833 -6 -6 15
1970 0 1 0 1.32674950176054 65.068839063614 71.96238622243987 -6 -6 15
1982 0 1 0 1.332446778145627 72.48381697793496 71.84442674861499 -6 -6 15
1974 0 1 0 1.32498351277529 67.61139046680182 71.82855539832882 -6 -6 15
1976 0 1 0 3.4821445930053696 66.29959023530739 71.73429241990036 -6 -6 15
2224 0 1 0 7.799235852708768 71.30078373253595 71.63131944544759 -6 -6 15
1979 0 1 0 2.04260538959201 68.79760808574243 71.74187971061018 -6 -6 15
1980 0 1 0 3.499124168414163 68.78174347794652 71.68942328630405 -6 -6 15
2213 0 1 0 4.195413985383465 67.57783985865213 71.57788006735507 -6 -6 15
2215 0 1 0 6.346756728501017 66.2878906600184 71.59500962334513 -6 -6 15
2210 0 1 0 5.62028135283318 65.09801106278238 71.6662213561156 -6 -6 15
2209 0 1 0 4.233015990437796 65.0229139376281 71.78646827013416 -6 -6 15
2214 0 1 0 5.592200772946849 67.51345193308026 71.51431287430172 -6 -6 15
2216 0 1 0 7.789680195875445 66.31440093337292 71.53487920407883 -6 -6 15
2219 0 1 0 6.3144146451745655 68.78557759990065 71.47325878787599 -6 -6 15
2220 0 1 0 7.721506412233917 68.80257017402357 71.51984550855666 -6 -6 15
2449 0 1 0 8.496367453024755 65.04740065015402 71.56606812305506 -6 -6 15
2453 0 1 0 8.46943455820468 67.58074768517548 71.54995337511588 -6 -6 15
2489 0 1 0 8.443600509624407 89.92193967414914 71.53558395994095 -6 -6 15
2011 0 1 0 2.002282905970019 88.67446044217789 71.70501666956325 -6 -6 15
2016 0 1 0 3.414275576791628 91.19101304243061 71.75515622583326 -6 -6 15
1986 0 1 0 1.3925506287551008 75.02193683445161 71.94440315122513 -6 -6 15
2012 0 1 0 3.4501134268367672 88.70638830100575 71.69579033201609 -6 -6 15
1991 0 1 0 2.058687354764803 76.22582069123467 71.86903600692806 -6 -6 15
2254 0 1 0 5.598676654550935 92.40726982495732 71.69510354334214 -6 -6 15
1990 0 1 0 1.2951657775493828 77.50060650614743 71.71747880831175 -6 -6 15
2493 0 1 0 8.441899071349495 92.40002827036932 71.5955888733618 -6 -6 15
1992 0 1 0 3.4701366613313955 76.29924441399827 71.91920772976434 -6 -6 15
2226 0 1 0 5.621861455280715 75.00179625061236 71.84558792571589 -6 -6 15
2225 0 1 0 4.196014178973766 74.99440456754202 71.89437064846598 -6 -6 15
2231 0 1 0 6.312864963397389 76.23727654665304 71.76785058037093 -6 -6 15
2251 0 1 0 6.290387369138448 88.71164140494976 71.65267216378471 -6 -6 15
2229 0 1 0 4.208790461275756 77.47907244816452 71.82916485560581 -6 -6 15
2255 0 1 0 6.324753119659639 91.14964298210957 71.59332465083149 -6 -6 15
2230 0 1 0 5.652493381882886 77.51059786956218 71.87905058526009 -6 -6 15
2232 0 1 0 7.743919469057054 76.20298022270993 71.7259931494873 -6 -6 15
2469 0 1 0 8.438072874322698 77.42420829250095 71.65730711391448 -6 -6 15
2465 0 1 0 8.529951179273258 75.01665713576061 71.70416337714985 -6 -6 15
2250 0 1 0 5.53478164066531 89.9255066285421 71.62854277160343 -6 -6 15
2253 0 1 0 4.150016969241609 92.38969257014809 71.81794633749989 -6 -6 15
1994 0 1 0 1.3339630656788424 80.00748157975684 71.55959596985608 -6 -6 15
2249 0 1 0 4.12398940867247 89.95254223589181 71.63543244287452 -6 -6 15
1999 0 1 0 2.070316291486897 81.25531626112347 71.65934611462392 -6 -6 15
1995 0 1 0 2.039206648006001 78.78397381015155 71.68994843125603 -6 -6 15
1996 0 1 0 3.4610948083501603 78.76023245154725 71.7605178864572 -6 -6 15
2000 0 1 0 3.5293599671612887 81.21875767280572 71.6886003770442 -6 -6 15
2010 0 1 0 1.2713939305942092 89.93782777023318 71.68484937266365 -6 -6 15
1998 0 1 0 1.3137663651907179 82.4998099095242 71.66122131569443 -6 -6 15
2239 0 1 0 6.349381326318076 81.22953137077585 71.79381496333686 -6 -6 15
2235 0 1 0 6.378528380848561 78.75240816994723 71.83238652726774 -6 -6 15
2234 0 1 0 5.651895679133723 79.97147365691232 71.74991345507266 -6 -6 15
2233 0 1 0 4.20955598648789 80.00385921012239 71.68270475950426 -6 -6 15
2240 0 1 0 7.773685705773765 81.18779425884807 71.77590683381203 -6 -6 15
2236 0 1 0 7.807881973231744 78.7168749887835 71.76237095843462 -6 -6 15
2237 0 1 0 4.225608999184734 82.44111850162943 71.8015406662576 -6 -6 15
2238 0 1 0 5.618690083311808 82.5278694458235 71.910368475779 -6 -6 15
2477 0 1 0 8.51540778471762 82.48501765314235 71.84402379665599 -6 -6 15
2473 0 1 0 8.509038997476715 79.96289385829776 71.73306885092363 -6 -6 15
2256 0 1 0 7.762806026253514 91.13224701031447 71.52940852254953 -6 -6 15
2014 0 1 0 1.2898443202921366 92.38455666461068 71.8107343011188 -6 -6 15
2002 0 1 0 1.3379766330465799 84.98990017671571 71.75761772292432 -6 -6 15
2003 0 1 0 2.044033546116974 83.74209192795747 71.73597871723533 -6 -6 15
2252 0 1 0 7.775437170844143 88.73078804850091 71.5713290479142 -6 -6 15
2007 0 1 0 2.0706257852299177 86.15964345594148 71.83376838769438 -6 -6 15
2008 0 1 0 3.490511516377864 86.19392184052927 71.83658853097471 -6 -6 15
2004 0 1 0 3.512290644989217 83.72119006950261 71.85662104658415 -6 -6 15
2015 0 1 0 1.9717840936446558 91.16417374881551 71.8145462700861 -6 -6 15
2006 0 1 0 1.3419773137426638 87.40742573393956 71.79669100723963 -6 -6 15
2247 0 1 0 6.333779569756751 86.21547999247996 71.79944608206505 -6 -6 15
2243 0 1 0 6.39783402622955 83.76643775068004 71.85974596111024 -6 -6 15
2241 0 1 0 4.210058858454775 84.96768026082111 71.90606048823899 -6 -6 15
2242 0 1 0 5.642835101020795 84.96284049392273 71.82607448771219 -6 -6 15
2248 0 1 0 7.776775514103957 86.24144788035956 71.78891002577852 -6 -6 15
2246 0 1 0 5.581286617479684 87.43834585018496 71.64517466134912 -6 -6 15
2245 0 1 0 4.193213301382056 87.46455291187745 71.72380015992353 -6 -6 15
2244 0 1 0 7.839711609844941 83.7453380316333 71.83546753909431 -6 -6 15
2485 0 1 0 8.484843950346056 87.46247928544717 71.64539996988563 -6 -6 15
2481 0 1 0 8.555991709697683 84.9815943565616 71.79995216753979 -6 -6 15
2288 0 1 0 7.733996833895876 110.96274182177878 71.66881514777207 -6 -6 15
2019 0 1 0 1.9913549856344708 93.64583215564164 71.85550010463547 -6 -6 15
2278 0 1 0 5.552850747393788 107.24658060013044 71.77026997043605 -6 -6 15
2018 0 1 0 1.260446770036637 94.816643823483 71.77756800928628 -6 -6 15
2281 0 1 0 4.096398965994707 109.73243850300523 71.79367781668084 -6 -6 15
2023 0 1 0 1.9767488321845856 96.13062663922511 71.79422638478977 -6 -6 15
2020 0 1 0 3.421404075148068 93.60186245273377 71.88405488030087 -6 -6 15
2024 0 1 0 3.37636521287318 96.07915903228229 71.83453868157994 -6 -6 15
2048 0 1 0 3.391735651674581 110.97455930982417 71.77168762028373 -6 -6 15
2259 0 1 0 6.293894770317589 93.62787423238956 71.80099554649766 -6 -6 15
2521 0 1 0 8.459809877864465 109.75560753238774 71.63437742015542 -6 -6 15
2257 0 1 0 4.134299196721668 94.87600929176341 71.8632354637225 -6 -6 15
2258 0 1 0 5.567916095519311 94.90944445689381 71.74691414797113 -6 -6 15
2263 0 1 0 6.329167921340958 96.15947755064516 71.84703871196422 -6 -6 15
2264 0 1 0 7.7722053672956655 96.14440244993068 71.86624658690519 -6 -6 15
2260 0 1 0 7.735759950587594 93.62866618818482 71.7223225167401 -6 -6 15
2497 0 1 0 8.472516251441288 94.8894138547594 71.77890475211314 -6 -6 15
2517 0 1 0 8.414285880318939 107.29346620014225 71.76398910547856 -6 -6 15
2038 0 1 0 1.2025368518024424 107.25794182609538 71.72407474881132 -6 -6 15
2282 0 1 0 5.5544139205402026 109.71703021707869 71.75655146131982 -6 -6 15
2022 0 1 0 1.2321317046131055 97.32698021751649 71.84488977011476 -6 -6 15
2027 0 1 0 1.9882539473971466 98.54343886591495 71.8462291258362 -6 -6 15
2287 0 1 0 6.317694974951214 110.95628957459975 71.65370240213602 -6 -6 15
2026 0 1 0 1.2380332141642871 99.78861820237027 71.83568227580565 -6 -6 15
2028 0 1 0 3.3932612033804457 98.5495211920645 71.72036748093694 -6 -6 15
2284 0 1 0 7.750663980729255 108.49044087628302 71.6926891967873 -6 -6 15
2031 0 1 0 1.9116731044477244 101.00383387888002 71.70208871781375 -6 -6 15
2032 0 1 0 3.356824638661831 101.05006797852486 71.65595237553504 -6 -6 15
2505 0 1 0 8.458563359473054 99.85185851402444 71.8297754792113 -6 -6 15
2501 0 1 0 8.4560052111368 97.37723428235239 71.89047653971551 -6 -6 15
2262 0 1 0 5.564837679662663 97.33112338156599 71.82480156094756 -6 -6 15
2261 0 1 0 4.122494966747813 97.31931004858033 71.81707477840477 -6 -6 15
2265 0 1 0 4.106605510093036 99.83003408563623 71.68222491957825 -6 -6 15
2266 0 1 0 5.549604530868696 99.78686965298942 71.73529101480807 -6 -6 15
2267 0 1 0 6.326799141042158 98.54676196486618 71.77322226150154 -6 -6 15
2268 0 1 0 7.776556043286223 98.60028554401818 71.7996198500573 -6 -6 15
2271 0 1 0 6.2724158999503565 101.01847524640142 71.8067089245258 -6 -6 15
2272 0 1 0 7.69660853740427 101.05496405480561 71.72000646344816 -6 -6 15
2277 0 1 0 4.1149612188316755 107.29934554630846 71.83554150124843 -6 -6 15
2047 0 1 0 1.9693263137478951 110.96907800248938 71.8294473341788 -6 -6 15
2030 0 1 0 1.2036700524773964 102.24399551230535 71.87333355394458 -6 -6 15
2035 0 1 0 1.913945407529212 103.49622902088475 71.9082610359409 -6 -6 15
2044 0 1 0 3.379155554719862 108.49981666650952 71.77961576688192 -6 -6 15
2034 0 1 0 1.249362449349853 104.73021890479096 71.85636897686781 -6 -6 15
2036 0 1 0 3.36094728737456 103.55794733572812 71.74603150443761 -6 -6 15
2283 0 1 0 6.292060657214281 108.50169843768201 71.76112854058648 -6 -6 15
2039 0 1 0 1.9388323038106599 106.01110324689337 71.7366793256795 -6 -6 15
2040 0 1 0 3.3913611422266507 106.03001707965001 71.71864983087572 -6 -6 15
2273 0 1 0 4.119830780445606 104.76884257583383 71.63637300751391 -6 -6 15
2275 0 1 0 6.264669407747047 103.5456255005271 71.8023011457758 -6 -6 15
2269 0 1 0 4.0843743969091335 102.34022690582059 71.72363897517535 -6 -6 15
2270 0 1 0 5.523713498486608 102.2698258072787 71.81959035759311 -6 -6 15
2274 0 1 0 5.59514937459732 104.78276411073524 71.68411838138879 -6 -6 15
2276 0 1 0 7.707294222456652 103.54221179302587 71.6995812616069 -6 -6 15
2279 0 1 0 6.322184969986171 106.03223453177594 71.74688614634825 -6 -6 15
2280 0 1 0 7.733116151652382 106.0263824136271 71.71297458516406 -6 -6 15
2509 0 1 0 8.443642807103801 102.29111361129965 71.69148713510837 -6 -6 15
2513 0 1 0 8.461514201760826 104.77442478932149 71.70319119790119 -6 -6 15
2042 0 1 0 1.2630911752523843 109.71279022147196 71.86658960875668 -6 -6 15
2043 0 1 0 1.9487316666635426 108.49534606820232 71.80869629309298 -6 -6 15
2313 0 1 0 4.178740275984249 129.5815249849239 72.07520394128773 -6 -6 15
2074 0 1 0 1.3082117556082113 129.53052088227932 72.36185537751128 -6 -6 15
2549 0 1 0 8.417763835110335 127.1338640677345 71.8544285487058 -6 -6 15
2050 0 1 0 1.329986350405523 114.70097025020303 71.66635047965518 -6 -6 15
2046 0 1 0 1.3118906812133428 112.23059804717998 71.81850689516713 -6 -6 15
2051 0 1 0 1.998274510752293 113.45127368357439 71.76559351901497 -6 -6 15
2314 0 1 0 5.581097615412382 129.56252807597744 71.96813762573868 -6 -6 15
2052 0 1 0 3.462241345716266 113.42552518377951 71.67493789925095 -6 -6 15
2070 0 1 0 1.293993146159857 127.08995825359966 72.16974228927837 -6 -6 15
2285 0 1 0 4.149324131546739 112.20088775725803 71.69054335672472 -6 -6 15
2289 0 1 0 4.204620038234754 114.68268028811603 71.54663899345097 -6 -6 15
2286 0 1 0 5.618338448361274 112.21544913779746 71.56955974198439 -6 -6 15
2291 0 1 0 6.326866739585079 113.46843445441495 71.62253497123552 -6 -6 15
2310 0 1 0 5.5842535275576415 127.09273978362455 71.94576880435903 -6 -6 15
2075 0 1 0 2.018226326055681 128.31875416815828 72.30810763871222 -6 -6 15
2292 0 1 0 7.744793900844733 113.46036071792766 71.61889421656588 -6 -6 15
2290 0 1 0 5.61233125581886 114.69651570458039 71.56488158191615 -6 -6 15
2529 0 1 0 8.460534181382725 114.71710288373994 71.63077593734661 -6 -6 15
2525 0 1 0 8.445038235762134 112.18807380872332 71.62064352224031 -6 -6 15
2315 0 1 0 6.280879371835179 128.36138657649315 71.96635130358318 -6 -6 15
2076 0 1 0 3.4613115441544386 128.27466498845035 72.12540365517805 -6 -6 15
2055 0 1 0 2.0710583507832294 115.91344483904734 71.57105877379921 -6 -6 15
2054 0 1 0 1.3216757688510579 117.12248938642828 71.66271252057933 -6 -6 15
2072 0 1 0 3.4066503067977183 125.7997261194065 71.99143362772286 -6 -6 15
2059 0 1 0 2.091167435032162 118.36190735822527 71.63830132649558 -6 -6 15
2056 0 1 0 3.4829231058889807 115.95158077826059 71.43465738472878 -6 -6 15
2060 0 1 0 3.4804318959484792 118.38659225306748 71.4870453483932 -6 -6 15
2071 0 1 0 1.9711905304243929 125.83472675052158 72.03999041238038 -6 -6 15
2058 0 1 0 1.308488680604949 119.63694553075209 71.7605215982678 -6 -6 15
2537 0 1 0 8.415519747159177 119.69129057463736 71.62523847303606 -6 -6 15
2295 0 1 0 6.323760473784684 115.98101380636743 71.63313787309588 -6 -6 15
2294 0 1 0 5.655866296632128 117.2214790599342 71.60634207879937 -6 -6 15
2293 0 1 0 4.216288323689798 117.1770898824909 71.50669734901035 -6 -6 15
2299 0 1 0 6.30334150114655 118.47763271173869 71.65230686070214 -6 -6 15
2296 0 1 0 7.742911410724458 115.95346903512505 71.66239636802771 -6 -6 15
2300 0 1 0 7.736885751773818 118.46605508926191 71.67154474209055 -6 -6 15
2297 0 1 0 4.1336650564019655 119.6713526793642 71.4418707172346 -6 -6 15
2298 0 1 0 5.577856056011559 119.69711807358922 71.494298725261 -6 -6 15
2533 0 1 0 8.40696276531237 117.1715435754977 71.68961293918812 -6 -6 15