LAMMPS (4 Feb 2025)
OMP_NUM_THREADS environment is not set. Defaulting to 1 thread. (src/comm.cpp:99)
  using 1 OpenMP thread(s) per MPI task
# LAMMPS script for running NVT simulation

units       metal
dimension   3
boundary    p p p
atom_style  full
atom_modify map yes

newton      on

read_data   ../start.lammps-data
Reading data file ...
  orthogonal box = (0 0 0) to (153.23796 147.4533 151.07317)
  16 by 8 by 8 MPI processor grid
  reading atoms ...
  11640 atoms
  reading velocities ...
  11640 velocities
Finding 1-2 1-3 1-4 neighbors ...
  special bond factors lj:    0        0        0       
  special bond factors coul:  0        0        0       
     0 = max # of 1-2 neighbors
     0 = max # of 1-3 neighbors
     0 = max # of 1-4 neighbors
     1 = max # of special neighbors
  special bonds CPU = 5.951 seconds
  read_data CPU = 6.149 seconds

pair_style  symmetrix/mace
pair_coeff  * * ../../../00-common/models/ch2o-dens-inv_swa-1-6-8.json C H O
Loading MACE model from '../../../00-common/models/ch2o-dens-inv_swa-1-6-8.json' ... success
  mapping LAMMPS type 1 (C) to MACE type 1
  mapping LAMMPS type 2 (H) to MACE type 0
  mapping LAMMPS type 3 (O) to MACE type 2

variable t equal step

group graphene type 1
8640 atoms in group graphene
group H2O type 2 3
3000 atoms in group H2O

thermo 1000

######### NVT equilibration for 80 ps #############

dump DUMP1 all atom 100 nvt_equi.lammpstrj
timestep 0.001
fix NVT1 graphene nvt temp 300 300 0.1
fix NVT2 H2O nvt temp 300 300 0.1
run 80000
Neighbor list info ...
  update: every = 1 steps, delay = 0 steps, check = yes
  max neighbors/atom: 2000, page size: 100000
  master list distance cutoff = 8
  ghost atom cutoff = 8
  binsize = 4, bins = 39 37 38
  1 neighbor lists, perpetual/occasional/extra = 1 0 0
  (1) pair symmetrix/mace, perpetual
      attributes: full, newton on
      pair build: full/bin
      stencil: full/bin/3d
      bin: standard
Per MPI rank memory allocation (min/avg/max) = 5.921 | 6.239 | 8.655 Mbytes
   Step          Temp          E_pair         E_mol          TotEng         Press     
         0   78.173347     -1810191.6      0             -1810074        1215.8247    
      1000   88.088265     -1810186        0             -1810053.5      762.87503    
      2000   228.62666     -1810048.1      0             -1809704.2     -658.26435    
      3000   304.08157     -1809951.9      0             -1809494.4     -690.96715    
      4000   299.05978     -1809935.9      0             -1809486       -815.76077    
      5000   300.50304     -1809930.4      0             -1809478.4     -611.13267    
      6000   295.1107      -1809924.3      0             -1809480.3     -609.01499    
      7000   294.29636     -1809926.8      0             -1809484       -571.51087    
      8000   303.14488     -1809912.4      0             -1809456.3     -423.86972    
      9000   294.51961     -1809909.4      0             -1809466.3     -506.94808    
     10000   295.70005     -1809924.1      0             -1809479.2     -353.85435    
     11000   304.12722     -1809909.1      0             -1809451.6     -377.56517    
     12000   302.19092     -1809910.2      0             -1809455.6     -245.10415    
     13000   298.29642     -1809906.7      0             -1809457.9     -108.96782    
     14000   300.34744     -1809909.9      0             -1809458.1     -154.38021    
     15000   307.82103     -1809893.8      0             -1809430.7     -236.12059    
     16000   297.80616     -1809903.1      0             -1809455       -109.15008    
     17000   297.05251     -1809906.5      0             -1809459.6      95.962853    
     18000   303.40227     -1809890.9      0             -1809434.4     -81.1165      
     19000   300.3739      -1809903.9      0             -1809452       -32.963543    
     20000   300.80211     -1809905.2      0             -1809452.7     -55.212075    
     21000   302.97889     -1809897.6      0             -1809441.8      1.7542925    
     22000   295.39088     -1809899.3      0             -1809454.9      93.987916    
     23000   305.73394     -1809886.8      0             -1809426.9      160.79108    
     24000   299.90783     -1809888.5      0             -1809437.3      152.00575    
     25000   296.46635     -1809893.1      0             -1809447.1      82.311555    
     26000   300.38392     -1809894.1      0             -1809442.2      43.441261    
     27000   299.22842     -1809893.7      0             -1809443.5      75.135351    
     28000   296.50184     -1809894.8      0             -1809448.8      137.18345    
     29000   296.95788     -1809889        0             -1809442.2      30.126267    
     30000   296.78338     -1809897.6      0             -1809451.1      154.41946    
     31000   302.77163     -1809891.4      0             -1809435.9      129.61724    
     32000   296.29012     -1809899.6      0             -1809453.9      115.93245    
     33000   302.19415     -1809904.8      0             -1809450.2      163.85986    
     34000   297.03512     -1809895.7      0             -1809448.8      17.601441    
     35000   292.01897     -1809897.3      0             -1809458        17.739522    
     36000   302.68619     -1809895        0             -1809439.6      105.78971    
     37000   298.12881     -1809897.4      0             -1809448.9      125.50732    
     38000   299.3543      -1809902.3      0             -1809451.9      86.336855    
     39000   300.53395     -1809892.2      0             -1809440.1      150.11154    
     40000   299.47957     -1809900.9      0             -1809450.4      94.87313     
     41000   301.93774     -1809895        0             -1809440.7      148.5906     
     42000   301.26304     -1809900.7      0             -1809447.5      27.019757    
     43000   298.43617     -1809894.2      0             -1809445.2      52.048736    
     44000   299.40406     -1809901.3      0             -1809450.9      93.914475    
     45000   296.88369     -1809906.3      0             -1809459.6      145.21281    
     46000   302.22375     -1809898.7      0             -1809444        155.64515    
     47000   297.93441     -1809900.3      0             -1809452        118.13804    
     48000   298.60887     -1809899.3      0             -1809450.1      75.212349    
     49000   303.0731      -1809909.7      0             -1809453.7      85.034196    
     50000   300.00408     -1809901.8      0             -1809450.5      108.78578    
     51000   296.82314     -1809900.1      0             -1809453.5      165.17669    
     52000   303.52918     -1809904.1      0             -1809447.5      117.72173    
     53000   305.00498     -1809904.2      0             -1809445.4      18.299958    
     54000   295.81929     -1809897.5      0             -1809452.5      112.39305    
     55000   299.82722     -1809903.3      0             -1809452.2      91.220341    
     56000   301.22755     -1809900.6      0             -1809447.4      112.04204    
     57000   299.34068     -1809904.9      0             -1809454.6      74.961772    
     58000   298.19029     -1809901.5      0             -1809452.8      99.908936    
     59000   299.40253     -1809907.8      0             -1809457.4      105.874      
     60000   300.89854     -1809903.3      0             -1809450.6      107.93154    
     61000   302.07104     -1809899.3      0             -1809444.8      50.664985    
     62000   304.71899     -1809903.7      0             -1809445.2      60.320974    
     63000   303.23431     -1809905.6      0             -1809449.4      75.470426    
     64000   300.71922     -1809906.6      0             -1809454.2      72.707016    
     65000   298.05646     -1809900.6      0             -1809452.2      95.204657    
     66000   302.67253     -1809904        0             -1809448.6      133.37667    
     67000   300.14892     -1809904.6      0             -1809453.1      19.693112    
     68000   299.80324     -1809905.2      0             -1809454.2      81.220008    
     69000   298.52253     -1809905.3      0             -1809456.2      78.114515    
     70000   300.40479     -1809907.4      0             -1809455.4      78.298776    
     71000   306.75508     -1809907        0             -1809445.5      99.413798    
     72000   302.71464     -1809898.9      0             -1809443.5      36.877706    
     73000   298.35189     -1809904.6      0             -1809455.7      56.742576    
     74000   296.65164     -1809899.6      0             -1809453.3      39.943383    
     75000   297.81509     -1809900.3      0             -1809452.3      98.508676    
     76000   300.27601     -1809905.4      0             -1809453.6      110.67138    
     77000   297.19452     -1809904.5      0             -1809457.3      44.918054    
     78000   299.01203     -1809901.2      0             -1809451.4      77.808497    
     79000   298.03019     -1809907.8      0             -1809459.4      47.096801    
     80000   299.08708     -1809900.5      0             -1809450.5      30.526355    
Loop time of 58504.9 on 1024 procs for 80000 steps with 11640 atoms

Performance: 0.118 ns/day, 203.142 hours/ns, 1.367 timesteps/s, 15.917 katom-step/s
100.0% CPU use with 1024 MPI tasks x 1 OpenMP threads

MPI task timing breakdown:
Section |  min time  |  avg time  |  max time  |%varavg| %total
---------------------------------------------------------------
Pair    | 705.84     | 5649.8     | 26155      |6838.0 |  9.66
Bond    | 0.0040966  | 0.018643   | 0.44718    |  20.8 |  0.00
Neigh   | 0.11336    | 0.35159    | 1.6021     |  40.0 |  0.00
Comm    | 18.416     | 2074.9     | 7534.5     |3859.5 |  3.55
Output  | 16.253     | 20.989     | 26.094     |  64.5 |  0.04
Modify  | 29536      | 50745      | 57724      |2797.8 | 86.74
Other   |            | 14         |            |       |  0.02

Nlocal:        11.3672 ave         312 max           0 min
Histogram: 890 1 114 3 4 3 1 2 4 2
Nghost:        84.6133 ave        1450 max           0 min
Histogram: 786 152 52 12 6 6 4 3 1 2
Neighs:              0 ave           0 max           0 min
Histogram: 1024 0 0 0 0 0 0 0 0 0
FullNghs:      1223.24 ave       61498 max           0 min
Histogram: 997 9 4 3 2 1 2 2 2 2

Total # of neighbors = 1252600
Ave neighs/atom = 107.61168
Ave special neighs/atom = 0
Neighbor list builds = 3851
Dangerous builds = 0

write_restart nvt_equi.restart.*
System init for write_restart ...
write_data nvt_equi_final.lammps-data
System init for write_data ...

Total wall time: 16:15:32
