LAMMPS (4 Feb 2025)
OMP_NUM_THREADS environment is not set. Defaulting to 1 thread. (src/comm.cpp:99)
  using 1 OpenMP thread(s) per MPI task
# LAMMPS script for continuing NVT simulation

atom_modify map yes
newton      on

read_restart nvt_prod.restart.100000
Reading restart file ...
  restart file = 4 Feb 2025, LAMMPS = 4 Feb 2025
WARNING: Restart file used different # of processors: 1536 vs. 768 (src/read_restart.cpp:628)
  restoring atom style full from restart
  orthogonal box = (0 0 0) to (154.008 148.2 151.07609)
  12 by 8 by 8 MPI processor grid
  pair style symmetrix/mace stores no restart info
  8640 atoms
Finding 1-2 1-3 1-4 neighbors ...
  special bond factors lj:    0        0        0       
  special bond factors coul:  0        0        0       
     0 = max # of 1-2 neighbors
     0 = max # of 1-3 neighbors
     0 = max # of 1-4 neighbors
     1 = max # of special neighbors
  special bonds CPU = 2.684 seconds
  read_restart CPU = 2.804 seconds

pair_style  symmetrix/mace
pair_coeff  * * ../../../00-common/models/ch2o-dens-inv_swa-1-6-8.json C
Loading MACE model from '../../../00-common/models/ch2o-dens-inv_swa-1-6-8.json' ... success
  mapping LAMMPS type 1 (C) to MACE type 1

thermo 1000

######### NVT production for 200 ps #############

dump DUMP1 all atom 100 nvt_prod_1.lammpstrj
timestep 0.001
fix NVT1 all nvt temp 300 300 0.1
run 200000
Unused restart file global fix info:
  fix style: nvt, fix ID: NVT2
Neighbor list info ...
  update: every = 1 steps, delay = 0 steps, check = yes
  max neighbors/atom: 2000, page size: 100000
  master list distance cutoff = 8
  ghost atom cutoff = 8
  binsize = 4, bins = 39 38 38
  1 neighbor lists, perpetual/occasional/extra = 1 0 0
  (1) pair symmetrix/mace, perpetual
      attributes: full, newton on
      pair build: full/bin
      stencil: full/bin/3d
      bin: standard
Per MPI rank memory allocation (min/avg/max) = 5.909 | 6.06 | 7.136 Mbytes
   Step          Temp          E_pair         E_mol          TotEng         Press     
    100000   302.79907     -1340238        0             -1339899.9      81.894305    
    101000   295.80016     -1340239.4      0             -1339909.1      66.70166     
    102000   298.19165     -1340235.7      0             -1339902.7      96.122493    
    103000   303.48393     -1340232.1      0             -1339893.2      113.78356    
    104000   301.54689     -1340239.3      0             -1339902.6      113.18013    
    105000   302.54707     -1340238.4      0             -1339900.6      90.580047    
    106000   303.51918     -1340237.2      0             -1339898.3      70.632556    
    107000   298.8889      -1340234.8      0             -1339901        34.827829    
    108000   296.93319     -1340238.4      0             -1339906.8      45.360151    
    109000   302.25837     -1340234.5      0             -1339896.9      60.829371    
    110000   297.4856      -1340232.6      0             -1339900.4      66.939804    
    111000   302.25945     -1340236.7      0             -1339899.1      77.336039    
    112000   299.3801      -1340234.6      0             -1339900.3      74.94116     
    113000   299.93202     -1340240.2      0             -1339905.3      64.810627    
    114000   297.57214     -1340233.7      0             -1339901.4      47.867458    
    115000   299.28351     -1340238.9      0             -1339904.7      8.7017686    
    116000   297.87794     -1340238.5      0             -1339905.8      0.33116084   
    117000   302.51892     -1340232.6      0             -1339894.8     -8.9114756    
    118000   298.08376     -1340235.3      0             -1339902.5      17.740124    
    119000   300.32252     -1340231.4      0             -1339896.1      40.818446    
    120000   299.66401     -1340231.9      0             -1339897.3      38.862262    
    121000   300.67338     -1340239.7      0             -1339903.9      40.156577    
    122000   298.05639     -1340238.9      0             -1339906.1      53.317144    
    123000   299.2396      -1340237.2      0             -1339903.1      47.667989    
    124000   299.55008     -1340233.1      0             -1339898.6      92.780421    
    125000   300.78872     -1340233.5      0             -1339897.6      74.201488    
    126000   305.15696     -1340237.6      0             -1339896.9      63.374764    
    127000   297.12197     -1340230.9      0             -1339899.1      81.401667    
    128000   300.29278     -1340239.4      0             -1339904.1      57.987559    
    129000   300.98477     -1340242.2      0             -1339906.1      56.277452    
    130000   300.6777      -1340236.7      0             -1339900.9      51.782381    
    131000   300.95474     -1340236.1      0             -1339900        47.300671    
    132000   299.16335     -1340240.3      0             -1339906.2      51.454258    
    133000   300.16638     -1340236        0             -1339900.8      55.890687    
    134000   296.7517      -1340239.4      0             -1339908.1      53.555043    
    135000   297.47472     -1340231.7      0             -1339899.5      82.923675    
    136000   300.55348     -1340233.4      0             -1339897.8      61.178415    
    137000   298.81305     -1340240.5      0             -1339906.8      82.714567    
    138000   296.72        -1340234.3      0             -1339903        64.342001    
    139000   300.78328     -1340233.4      0             -1339897.5      71.575183    
    140000   301.79358     -1340242.3      0             -1339905.3      45.141977    
    141000   299.19346     -1340235        0             -1339900.9      53.264373    
    142000   301.36838     -1340241.5      0             -1339905        57.015235    
    143000   303.22051     -1340233.9      0             -1339895.3      55.075175    
    144000   297.34584     -1340234.5      0             -1339902.5      77.273922    
    145000   306.06935     -1340240.4      0             -1339898.6      95.155982    
    146000   297.36504     -1340234.2      0             -1339902.1      71.56232     
    147000   294.0247      -1340235.5      0             -1339907.2      66.719509    
    148000   299.67015     -1340236.1      0             -1339901.5      56.954302    
    149000   300.90032     -1340239.5      0             -1339903.5      45.945938    
    150000   298.59918     -1340239.1      0             -1339905.6      49.733327    
    151000   301.76709     -1340237.9      0             -1339900.9      35.715687    
    152000   294.40037     -1340241.3      0             -1339912.6      29.244898    
    153000   300.27256     -1340232.9      0             -1339897.6      37.184877    
    154000   299.55452     -1340238.6      0             -1339904.1      48.865433    
    155000   300.55885     -1340231.6      0             -1339895.9      88.120449    
    156000   298.16823     -1340237        0             -1339904.1      67.239781    
    157000   295.25674     -1340233.6      0             -1339903.9      31.787032    
    158000   301.4537      -1340238.1      0             -1339901.5      44.081551    
    159000   301.62779     -1340238.9      0             -1339902.1      55.171077    
    160000   301.86957     -1340230.1      0             -1339893        69.980438    
    161000   300.67514     -1340239.2      0             -1339903.4      103.69359    
    162000   296.38419     -1340238.9      0             -1339907.9      94.81095     
    163000   297.07984     -1340231.5      0             -1339899.7      35.111743    
    164000   298.97638     -1340236.7      0             -1339902.8      66.032683    
    165000   297.41915     -1340238.2      0             -1339906.1      86.961339    
    166000   298.35569     -1340231.7      0             -1339898.5      89.636874    
    167000   298.73583     -1340236.6      0             -1339903        104.73495    
    168000   302.86615     -1340237.8      0             -1339899.6      99.773709    
    169000   301.63634     -1340239.3      0             -1339902.5      76.153921    
    170000   300.07826     -1340237.2      0             -1339902.1      50.025252    
    171000   298.52565     -1340235.7      0             -1339902.3      45.801348    
    172000   297.00384     -1340238.6      0             -1339906.9      16.062399    
    173000   301.68776     -1340237.4      0             -1339900.5      15.505426    
    174000   297.66419     -1340240.3      0             -1339907.9      3.2132605    
    175000   300.20616     -1340239.3      0             -1339904.1      24.738817    
    176000   301.1546      -1340231        0             -1339894.7      13.643888    
    177000   301.83085     -1340240.7      0             -1339903.7      31.595423    
    178000   301.29788     -1340236.9      0             -1339900.4      41.392605    
    179000   302.46397     -1340242.3      0             -1339904.5      49.500175    
    180000   297.83477     -1340234.7      0             -1339902.1      48.856645    
    181000   299.26193     -1340236.1      0             -1339902        78.879891    
    182000   303.69362     -1340241.3      0             -1339902.2      74.891512    
    183000   305.37489     -1340235.3      0             -1339894.3      57.088906    
    184000   296.14289     -1340236.7      0             -1339906        52.86189     
    185000   296.52632     -1340232.7      0             -1339901.6      53.852297    
    186000   295.42188     -1340230        0             -1339900.1      75.782941    
    187000   299.19072     -1340237.7      0             -1339903.6      54.425692    
    188000   300.60814     -1340239.4      0             -1339903.7      71.512531    
    189000   297.40827     -1340235        0             -1339902.9      74.80679     
    190000   301.38712     -1340237.9      0             -1339901.3      65.445103    
    191000   299.19571     -1340242.2      0             -1339908.1      64.668551    
    192000   301.01406     -1340236.1      0             -1339899.9      49.291876    
    193000   296.47231     -1340240.2      0             -1339909.2      53.500899    
    194000   293.3343      -1340228.7      0             -1339901.1      49.89854     
    195000   298.40331     -1340237.5      0             -1339904.2      52.680853    
    196000   306.28943     -1340233.5      0             -1339891.4      29.514562    
    197000   300.28709     -1340238        0             -1339902.7      37.573037    
    198000   304.06997     -1340239        0             -1339899.4      50.147122    
    199000   296.97828     -1340236.6      0             -1339905        56.213197    
    200000   299.70501     -1340239.5      0             -1339904.8      66.519148    
    201000   301.11908     -1340235.5      0             -1339899.2      65.793359    
    202000   298.11678     -1340243        0             -1339910.1      72.202242    
    203000   299.42061     -1340233.3      0             -1339898.9      78.66578     
    204000   297.26895     -1340234.8      0             -1339902.8      67.444617    
    205000   302.98801     -1340231.4      0             -1339893        56.630356    
    206000   299.81011     -1340232.8      0             -1339898        76.56991     
    207000   296.59711     -1340241.7      0             -1339910.5      81.641078    
    208000   302.14688     -1340236        0             -1339898.6      94.203877    
    209000   298.99475     -1340236.8      0             -1339902.9      73.477171    
    210000   300.81363     -1340232.1      0             -1339896.2      63.380603    
    211000   299.85692     -1340237.3      0             -1339902.5      101.4594     
    212000   298.15986     -1340231        0             -1339898        62.657613    
    213000   297.57358     -1340235.9      0             -1339903.6      48.43963     
    214000   300.78975     -1340233.5      0             -1339897.6      64.848857    
    215000   305.07591     -1340237.3      0             -1339896.6      51.4472      
    216000   297.18738     -1340237.6      0             -1339905.8      61.807535    
    217000   302.21159     -1340238.6      0             -1339901.2      31.994861    
    218000   297.46306     -1340234.8      0             -1339902.6      43.774817    
    219000   303.10223     -1340234.4      0             -1339895.9      67.439935    
    220000   298.08132     -1340238.2      0             -1339905.4      39.465465    
    221000   297.66027     -1340239.1      0             -1339906.8      44.980144    
    222000   298.67498     -1340234.9      0             -1339901.4      42.116778    
    223000   298.58879     -1340234.8      0             -1339901.4      45.371525    
    224000   299.09872     -1340237.5      0             -1339903.5      38.085634    
    225000   300.50636     -1340238.8      0             -1339903.2      78.468499    
    226000   298.50458     -1340239.7      0             -1339906.3      86.357295    
    227000   299.12245     -1340240.3      0             -1339906.2      76.018997    
    228000   301.73867     -1340235.7      0             -1339898.8      84.71883     
    229000   298.76945     -1340239.1      0             -1339905.5      54.734888    
    230000   294.41683     -1340232.7      0             -1339904        71.452786    
    231000   302.94598     -1340234.3      0             -1339896        78.393301    
    232000   297.78485     -1340237.2      0             -1339904.6      73.985848    
    233000   300.83391     -1340239        0             -1339903.1      75.030227    
    234000   294.83004     -1340237.6      0             -1339908.4      80.849168    
    235000   298.12508     -1340237.7      0             -1339904.7      82.918091    
    236000   305.04572     -1340231        0             -1339890.3      47.650047    
    237000   298.15116     -1340234.6      0             -1339901.6      57.424032    
    238000   301.94098     -1340241.2      0             -1339904.1      45.203479    
    239000   300.07343     -1340241.3      0             -1339906.2      44.262595    
    240000   297.93709     -1340232.7      0             -1339900        36.335999    
    241000   301.08874     -1340240.6      0             -1339904.4      38.603302    
    242000   301.60172     -1340236.9      0             -1339900.1      50.872091    
    243000   298.81979     -1340237.2      0             -1339903.6      33.428184    
    244000   297.10272     -1340230.7      0             -1339898.9      40.933565    
    245000   302.59898     -1340235.9      0             -1339898        63.772433    
    246000   296.8005      -1340237.8      0             -1339906.4      44.626389    
    247000   298.07967     -1340234.7      0             -1339901.9      49.664248    
    248000   302.88228     -1340237.4      0             -1339899.2      79.296639    
    249000   298.67395     -1340234.4      0             -1339900.8      79.613357    
    250000   304.05837     -1340235.3      0             -1339895.7      77.906454    
    251000   296.59303     -1340235.5      0             -1339904.3      85.92874     
    252000   302.13689     -1340234.3      0             -1339896.9      95.121143    
    253000   294.87907     -1340233.4      0             -1339904.1      93.387469    
    254000   298.95177     -1340235.3      0             -1339901.5      95.64637     
    255000   301.45515     -1340233        0             -1339896.4      64.162573    
    256000   299.29945     -1340242.7      0             -1339908.5      72.202118    
    257000   300.69731     -1340232.6      0             -1339896.8      71.169012    
    258000   300.49425     -1340238.8      0             -1339903.3      79.091895    
    259000   297.67061     -1340229.7      0             -1339897.3      70.501519    
    260000   298.51616     -1340236.3      0             -1339902.9      35.527325    
    261000   298.16173     -1340234.2      0             -1339901.2      7.8767287    
    262000   299.56268     -1340228.1      0             -1339893.6      25.401657    
    263000   297.72129     -1340238.9      0             -1339906.4      37.012005    
    264000   304.41036     -1340243.3      0             -1339903.4      90.577834    
    265000   300.35018     -1340236.3      0             -1339900.9      56.955161    
    266000   299.26171     -1340235.9      0             -1339901.7      52.255847    
    267000   301.17304     -1340232.3      0             -1339896        68.670423    
    268000   301.24052     -1340236.9      0             -1339900.5      74.577882    
    269000   299.42293     -1340237.6      0             -1339903.3      89.634335    
    270000   301.74457     -1340234.5      0             -1339897.5      80.054217    
    271000   299.53526     -1340234.1      0             -1339899.6      53.255455    
    272000   295.01187     -1340241.2      0             -1339911.7      56.988241    
    273000   304.55946     -1340237.8      0             -1339897.7      66.937775    
    274000   301.89394     -1340230.3      0             -1339893.2      65.188662    
    275000   297.51291     -1340234.1      0             -1339901.9      93.87633     
    276000   298.19008     -1340233        0             -1339900        96.24968     
    277000   300.55166     -1340237.3      0             -1339901.7      57.722067    
    278000   302.22354     -1340241.8      0             -1339904.3      77.030391    
    279000   302.40263     -1340239.9      0             -1339902.3      61.652916    
    280000   301.57384     -1340236.8      0             -1339900        77.62313     
    281000   297.47946     -1340235.5      0             -1339903.3      66.083882    
    282000   301.48503     -1340233.3      0             -1339896.6      69.942619    
    283000   301.34623     -1340242.8      0             -1339906.3      59.120127    
    284000   300.53067     -1340238.9      0             -1339903.3      54.550156    
    285000   297.9677      -1340235        0             -1339902.3      52.490164    
    286000   299.29208     -1340239        0             -1339904.8      78.571653    
    287000   302.81418     -1340234.6      0             -1339896.4      23.94997     
    288000   296.22309     -1340237        0             -1339906.2      18.93852     
    289000   300.70363     -1340233        0             -1339897.2      5.9191724    
    290000   298.27739     -1340236.5      0             -1339903.5      23.837975    
    291000   304.98627     -1340230.9      0             -1339890.3      31.23501     
    292000   297.45798     -1340235.6      0             -1339903.5      30.569212    
    293000   301.56231     -1340235.9      0             -1339899.1      72.433076    
    294000   298.97485     -1340240.6      0             -1339906.8      59.052774    
    295000   303.84224     -1340236.9      0             -1339897.6      43.279095    
    296000   299.21589     -1340235.9      0             -1339901.7      84.425832    
    297000   301.63555     -1340243.3      0             -1339906.4      77.228285    
    298000   299.47563     -1340239.1      0             -1339904.7      77.041302    
    299000   303.37808     -1340238.1      0             -1339899.4      99.759451    
    300000   298.76897     -1340241.6      0             -1339908        89.402187    
Loop time of 40615.2 on 768 procs for 200000 steps with 8640 atoms

Performance: 0.425 ns/day, 56.410 hours/ns, 4.924 timesteps/s, 42.546 katom-step/s
100.0% CPU use with 768 MPI tasks x 1 OpenMP threads

MPI task timing breakdown:
Section |  min time  |  avg time  |  max time  |%varavg| %total
---------------------------------------------------------------
Pair    | 0.35371    | 8584.3     | 35160      |13761.2 | 21.14
Bond    | 0.012621   | 0.028948   | 0.18102    |  17.0 |  0.00
Neigh   | 0.046541   | 0.12089    | 0.33366    |  18.0 |  0.00
Comm    | 0.72771    | 921.06     | 3550.1     |4063.3 |  2.27
Output  | 3.5624     | 12.306     | 21.483     | 150.2 |  0.03
Modify  | 2290.8     | 31081      | 40586      |7879.2 | 76.53
Other   |            | 16.22      |            |       |  0.04

Nlocal:          11.25 ave          90 max           0 min
Histogram: 672 0 0 0 0 0 0 0 0 96
Nghost:        82.6901 ave         381 max           0 min
Histogram: 576 0 0 0 0 0 0 96 0 96
Neighs:              0 ave           0 max           0 min
Histogram: 768 0 0 0 0 0 0 0 0 0
FullNghs:      868.023 ave        6986 max           0 min
Histogram: 672 0 0 0 0 0 0 0 0 96

Total # of neighbors = 666642
Ave neighs/atom = 77.157639
Ave special neighs/atom = 0
Neighbor list builds = 733
Dangerous builds = 0

write_restart nvt_prod.restart.*
System init for write_restart ...
write_data nvt_prod_final.lammps-data
System init for write_data ...

Total wall time: 11:17:13
