LAMMPS data file via write_data, version 4 Feb 2025, timestep = 30000, units = metal

8640 atoms
1 atom types

0 154.00799999999998 xlo xhi
0 148.2 ylo yhi
0 151.07609208607428 zlo zhi

Masses

1 12.01099999691024

Atoms # full

13 0 1 0 3.3025083501304406 2.0736190447661373 15.256386828284535 0 0 0
4 0 1 0 1.853249383822765 2.111996263521932 15.275774609371448 0 0 0
14 0 1 0 3.998363921854351 3.3268072772959902 15.22071898662261 0 0 0
7925 0 1 0 1.143045707243878 3.2914917489657256 15.085330515095848 1 0 0
7923 0 1 0 1.1704851088688766 0.8452181105059375 15.284163117711092 1 0 0
12 0 1 0 4.004993141517055 0.8826972159699303 15.45205459290888 0 0 0
15 0 1 0 3.2745748053659223 4.577644944200861 15.051210741214298 0 0 0
6 0 1 0 1.8388237999867931 4.555352794876515 14.98312847282653 0 0 0
23 0 1 0 5.429578795941438 0.8760379570664165 15.582570276489133 0 0 0
25 0 1 0 5.447908711971091 3.3371432671891874 15.329862249034283 0 0 0
34 0 1 0 8.282007250628896 3.401134423632534 15.663622986768502 0 0 0
24 0 1 0 6.137707048425546 2.131913040530466 15.511141513037302 0 0 0
32 0 1 0 8.262094349706148 0.9007443801123535 15.85394714211966 0 0 0
33 0 1 0 7.610460312801773 2.1101275398626713 15.737587813344987 0 0 0
26 0 1 0 6.146446910849813 4.641316446598892 15.328744894525183 0 0 0
35 0 1 0 7.596659541809296 4.628233465120427 15.413249246191182 0 0 0
18 0 1 0 4.01591919117651 8.30954474218653 14.929975107750906 0 0 0
7927 0 1 0 1.1229636858206282 5.788251951586418 14.85199798126057 1 0 0
7929 0 1 0 1.165547783254931 8.273476270905993 14.66151821151554 1 0 0
8 0 1 0 1.8463101348128004 7.0047358167732785 14.82256243288911 0 0 0
17 0 1 0 3.298390351601111 7.06238318299675 14.902622855061942 0 0 0
16 0 1 0 4.011354431358598 5.826804180632228 15.057930964607984 0 0 0
29 0 1 0 5.452861610767574 8.375632419500821 15.190618277155393 0 0 0
27 0 1 0 5.427699115122474 5.91458243584139 15.21930213272796 0 0 0
38 0 1 0 8.324006352469931 8.334745859396987 15.302406133110377 0 0 0
28 0 1 0 6.160924239382208 7.159870006389555 15.222853476057095 0 0 0
36 0 1 0 8.330972324617143 5.870765605140076 15.362801288870202 0 0 0
37 0 1 0 7.598468298044631 7.078921704177339 15.24207256652343 0 0 0
10 0 1 0 1.88776704946108 9.526002104463435 14.60327041719117 0 0 0
19 0 1 0 3.3062590789431274 9.62815967806845 14.7388951181565 0 0 0
20 0 1 0 4.034251231778063 10.826075992101813 14.801109500586586 0 0 0
62 0 1 0 1.8540982182932964 12.007140768170421 14.694854899851386 0 0 0
7983 0 1 0 1.1153240117266132 13.269516466689403 14.785271499065436 1 0 0
7921 0 1 0 1.1925494390286002 10.783234785129986 14.563656676992943 1 0 0
71 0 1 0 3.279987046230888 12.005752076640794 14.75214732548367 0 0 0
72 0 1 0 3.987669806061405 13.260070510221368 14.816074859496794 0 0 0
83 0 1 0 5.432534380707485 13.287832906348052 14.76041514052722 0 0 0
21 0 1 0 5.442352975764111 10.841621929652016 15.035326459630435 0 0 0
40 0 1 0 8.276859219792449 10.81172663530453 15.101274478256872 0 0 0
39 0 1 0 7.558308401029145 9.58107404729192 15.15896804872921 0 0 0
30 0 1 0 6.13895384571733 9.636277549459901 15.173604623778338 0 0 0
82 0 1 0 6.171206923839853 12.067110943679058 14.938723888762238 0 0 0
91 0 1 0 7.589501333935453 12.049973854215388 14.979071505506115 0 0 0
92 0 1 0 8.314533702589854 13.234508850177093 14.78112493410956 0 0 0
7985 0 1 0 1.0803091342830717 15.730183170700748 14.688791615488482 1 0 0
64 0 1 0 1.8298069083542534 14.517471058921831 14.808887824807805 0 0 0
66 0 1 0 1.8678257721221265 16.936872812521127 14.630044954080091 0 0 0
73 0 1 0 3.27436547938376 14.494437872784678 14.788800716181091 0 0 0
74 0 1 0 4.020865270874678 15.657482550725549 14.710850724870545 0 0 0
75 0 1 0 3.2889556793869184 16.913245795519867 14.6322787463781 0 0 0
7987 0 1 0 1.178105083313788 18.175775470270132 14.458018982313273 1 0 0
76 0 1 0 4.020179304337063 18.163163843946936 14.542504247894785 0 0 0
87 0 1 0 5.4579322374157515 18.17020229883336 14.437495896610104 0 0 0
86 0 1 0 6.157346548140051 16.948004428490872 14.522624329888629 0 0 0
93 0 1 0 7.600538660927636 14.504793055319332 14.749525368323813 0 0 0
94 0 1 0 8.27385032560451 15.758266056841832 14.627717574437401 0 0 0
84 0 1 0 6.190283201485213 14.514360000002702 14.691818767440097 0 0 0
96 0 1 0 8.274654624526269 18.21075046484815 14.367688199385697 0 0 0
85 0 1 0 5.452541743561469 15.749208715296508 14.67373785611743 0 0 0
95 0 1 0 7.597087155933179 16.959123852569334 14.414865112812562 0 0 0
78 0 1 0 4.033013021731703 20.65900201387021 14.363359452080509 0 0 0
79 0 1 0 3.307682497586626 21.884520165935953 14.24080830014085 0 0 0
68 0 1 0 1.8805539746745388 19.416021696630214 14.353683436193531 0 0 0
70 0 1 0 1.8654612577608 21.89463061486263 14.133036330591922 0 0 0
77 0 1 0 3.3114888435892817 19.400923669113354 14.39330949335227 0 0 0
7989 0 1 0 1.2018426224300272 20.61393482529635 14.243787142036123 1 0 0
80 0 1 0 4.042212004545098 23.164762891374885 14.187205033995646 0 0 0
89 0 1 0 5.43546894266983 20.672636211713115 14.307875180662709 0 0 0
88 0 1 0 6.186154427260722 19.427369675534692 14.3141147696521 0 0 0
90 0 1 0 6.162031972819789 21.91372823761668 14.270313774224185 0 0 0
97 0 1 0 7.5877542717052915 19.421868414586644 14.26299910248247 0 0 0
98 0 1 0 8.278518562571117 20.669759605834702 14.201818451675965 0 0 0
99 0 1 0 7.589389028640044 21.879824214564767 14.272270816599093 0 0 0
100 0 1 0 8.27922175061798 23.109003529634816 14.271788394151018 0 0 0
7981 0 1 0 1.1835750513539756 23.148649818518304 14.141785710434636 1 0 0
131 0 1 0 3.318969991167708 24.371637748337143 14.141880159642009 0 0 0
122 0 1 0 1.8880183367784775 24.42949469641869 14.19148061810852 0 0 0
124 0 1 0 1.9040040393153395 26.879843486452884 14.272193674013312 0 0 0
132 0 1 0 4.018183739294535 25.613623493864626 14.197468118903965 0 0 0
133 0 1 0 3.3150919446297764 26.895620333872376 14.180333467266276 0 0 0
8043 0 1 0 1.2049400814829 25.67500321463154 14.187271434396909 1 0 0
143 0 1 0 5.440261943934351 25.617638242716968 14.21812952167852 0 0 0
81 0 1 0 5.494963114446156 23.166449787557195 14.285189603146748 0 0 0
151 0 1 0 7.603563723661087 24.33823248611964 14.260214480871214 0 0 0
152 0 1 0 8.320121983425045 25.574135326687834 14.300548687058285 0 0 0
144 0 1 0 6.2186559370479815 26.84614919503767 14.223939839391267 0 0 0
142 0 1 0 6.1640532204184515 24.400548530098433 14.350281584570979 0 0 0
153 0 1 0 7.673158582673153 26.84042390994419 14.194432375824181 0 0 0
8045 0 1 0 1.19586913366807 28.124067288477153 14.17705282867237 1 0 0
134 0 1 0 4.077062687997919 28.127842629560888 14.146783552771387 0 0 0
137 0 1 0 3.3397054167240827 31.769429189130857 13.96037629639857 0 0 0
136 0 1 0 4.041030093449521 30.51527155962564 13.93730889055103 0 0 0
135 0 1 0 3.3428534038506377 29.33029981140145 14.097107578262476 0 0 0
126 0 1 0 1.9133297521475072 29.32330111757811 14.08773515824012 0 0 0
128 0 1 0 1.9387751021686213 31.73491487819665 14.008921653268484 0 0 0
8047 0 1 0 1.2116540652006786 30.53565976171925 13.929451946818599 1 0 0
147 0 1 0 5.4507754101940975 30.57121548773126 14.046325855385069 0 0 0
145 0 1 0 5.544563721738351 28.093185309552023 14.143262260528427 0 0 0
154 0 1 0 8.345000638373962 28.081087121181504 14.228405952393647 0 0 0
155 0 1 0 7.6364456980693065 29.32685889097427 14.107090564449148 0 0 0
146 0 1 0 6.1899094701330934 29.333360323892535 14.054986321172027 0 0 0
148 0 1 0 6.20042277253004 31.836112085127834 14.003659169365084 0 0 0
156 0 1 0 8.287569256743984 30.618979212973304 14.150203307720284 0 0 0
157 0 1 0 7.580619959929735 31.835198423005966 14.123176495393551 0 0 0
140 0 1 0 4.053018976439194 35.51792862881719 14.250493073893221 0 0 0
138 0 1 0 4.062740997249994 33.02223050676867 14.001319560006493 0 0 0
191 0 1 0 3.358763659552328 36.711206926724294 14.235208356905297 0 0 0
139 0 1 0 3.362866614634576 34.260970458722404 14.077088417977253 0 0 0
8041 0 1 0 1.2234725689361712 35.5059836395963 13.939046719236378 1 0 0
130 0 1 0 1.9502045986217207 34.28918267390459 13.95498531493924 0 0 0
182 0 1 0 1.960592224493523 36.72276546184276 14.077531583886874 0 0 0
8049 0 1 0 1.249020543574812 33.00297187866045 14.018622078741972 1 0 0
202 0 1 0 6.224436073073019 36.74242022975185 14.37492102153466 0 0 0
150 0 1 0 6.19319700410616 34.26102789311244 14.171481538324514 0 0 0
158 0 1 0 8.326717948130646 33.0831512336125 14.077750230462268 0 0 0
211 0 1 0 7.643909679135658 36.773453273818504 14.322015651924358 0 0 0
141 0 1 0 5.523226438206573 35.489497504428044 14.31679479484055 0 0 0
159 0 1 0 7.621326470653192 34.30177016668389 14.152933585614447 0 0 0
149 0 1 0 5.484050409907032 33.001053217647005 13.999812516116704 0 0 0
160 0 1 0 8.357777528773408 35.53446435106148 14.215827891085022 0 0 0
192 0 1 0 4.048495547087311 37.99445912483163 14.2223917768141 0 0 0
184 0 1 0 1.8917256647784413 39.198910551581086 14.212692369394354 0 0 0
193 0 1 0 3.3329071151120764 39.26739729180039 14.32641495559895 0 0 0
194 0 1 0 4.0636816780282965 40.46793125597056 14.19548735468376 0 0 0
8105 0 1 0 1.1900790709614602 40.50214894673483 14.093905201261505 1 0 0
8103 0 1 0 1.2505787630123055 37.95754444377188 14.179863418617506 1 0 0
212 0 1 0 8.373943274942537 37.988004633600625 14.24530584466386 0 0 0
213 0 1 0 7.655406060670534 39.18991998934484 14.077427953370007 0 0 0
214 0 1 0 8.34807252474725 40.419012873244384 13.925822053499273 0 0 0
203 0 1 0 5.4958353137102005 37.93876228190068 14.282709124024233 0 0 0
204 0 1 0 6.210758233906942 39.21695483942678 14.082448494592416 0 0 0
205 0 1 0 5.473793083183368 40.48079000897207 14.03701797507527 0 0 0
195 0 1 0 3.378572631206584 41.70631647086027 14.131723398675122 0 0 0
198 0 1 0 4.104428962590261 45.40402987663695 13.908182194389399 0 0 0
196 0 1 0 4.070996896635399 42.92812655849663 13.917853050689759 0 0 0
188 0 1 0 1.9344826101190493 44.12501308359589 13.87777034837572 0 0 0
8109 0 1 0 1.218899847562211 45.35422059583906 13.942073110603902 1 0 0
197 0 1 0 3.3541529571105273 44.140236644383144 13.837444485704317 0 0 0
8107 0 1 0 1.2082541143710936 42.885304211475834 13.869483995338978 1 0 0
186 0 1 0 1.9451699027476252 41.70657463009661 14.058444141583292 0 0 0
215 0 1 0 7.62390166760385 41.65916073701927 13.791248490025875 0 0 0
216 0 1 0 8.376597796342375 42.95413356506461 13.725715290378767 0 0 0
218 0 1 0 8.365551829800012 45.397577205697864 13.81652230519695 0 0 0
217 0 1 0 7.673420146493742 44.16103210665667 13.832316032212189 0 0 0
209 0 1 0 5.563406578212887 45.41241267634629 13.89493153702051 0 0 0
206 0 1 0 6.161907189238523 41.665935053322706 13.851786024991226 0 0 0
208 0 1 0 6.235786358200696 44.184662110798705 13.788090351501337 0 0 0
207 0 1 0 5.487436865236262 42.95663938699982 13.81975666979324 0 0 0
252 0 1 0 4.105582210497919 50.31645961096375 13.931687403433958 0 0 0
200 0 1 0 4.068670512067887 47.86430671788357 14.059327963201126 0 0 0
251 0 1 0 3.375354149618714 49.11007114107808 13.9766599812159 0 0 0
8163 0 1 0 1.2094980688854944 50.32804303276382 13.856320757967545 1 0 0
242 0 1 0 1.9260485221543793 49.10929640268962 13.787449748151634 0 0 0
8101 0 1 0 1.2331177075250863 47.82358046324192 13.790552559807534 1 0 0
190 0 1 0 1.9295318290678434 46.56751293900939 13.95340839494714 0 0 0
199 0 1 0 3.3435788219326508 46.623819319997764 14.036578205609763 0 0 0
210 0 1 0 6.2623121545336415 46.6073605067787 13.889331589467767 0 0 0
262 0 1 0 6.230044240062802 49.076046523336466 14.095760945950001 0 0 0
220 0 1 0 8.393316224575633 47.84231929519876 13.90267252403094 0 0 0
271 0 1 0 7.68083465434109 49.04485258426635 13.944444773296297 0 0 0
272 0 1 0 8.361102097107496 50.27457100867204 14.09067072992547 0 0 0
219 0 1 0 7.690620216884612 46.66309723847923 13.781489660371498 0 0 0
201 0 1 0 5.56740661063146 47.84480637474557 14.050525783524792 0 0 0
263 0 1 0 5.509187382779844 50.23394137443312 14.053489427462784 0 0 0
8167 0 1 0 1.2019841105760232 55.297512126468924 13.646251463844308 1 0 0
253 0 1 0 3.405193780830494 51.553053795124285 13.899117751962972 0 0 0
244 0 1 0 1.9604537916233833 51.59250264978742 13.866773091785207 0 0 0
8165 0 1 0 1.2541526279422581 52.78353186038886 13.673518183417013 1 0 0
246 0 1 0 1.96584960676742 54.032533798374224 13.654947258942382 0 0 0
255 0 1 0 3.366319040716276 53.99613797371946 13.847923005645598 0 0 0
256 0 1 0 4.087054982923154 55.257371244882286 13.957990015928896 0 0 0
254 0 1 0 4.105693712162263 52.74220642071955 13.90266009623742 0 0 0
266 0 1 0 6.241483461245312 53.956611183297646 14.071160110646062 0 0 0
275 0 1 0 7.658139732593438 53.96843858987539 14.235693038161912 0 0 0
265 0 1 0 5.561693380706083 52.747484511597904 13.982186429435538 0 0 0
267 0 1 0 5.512794027368154 55.20394202614517 14.025216722207936 0 0 0
274 0 1 0 8.387264062418797 52.74919450377677 14.172456606538846 0 0 0
264 0 1 0 6.221276298144208 51.49200909656512 14.083946326985616 0 0 0
276 0 1 0 8.3187881403199 55.22713234241976 14.229590291306815 0 0 0
273 0 1 0 7.657751113184797 51.50722637518787 14.124733582890999 0 0 0
259 0 1 0 3.330351733466051 58.988803091338625 13.691662910916264 0 0 0
258 0 1 0 4.0344277285176915 57.72609387694443 13.813883040944265 0 0 0
248 0 1 0 1.9441702477330516 56.49750294146972 13.675070377313585 0 0 0
257 0 1 0 3.3726422992697063 56.51209236325196 13.846858090811727 0 0 0
250 0 1 0 1.9250259323714969 59.03341943662778 13.473086282829465 0 0 0
8169 0 1 0 1.2682337400837258 57.73985284074293 13.518004882946196 1 0 0
279 0 1 0 7.55561562576691 59.01067074478829 13.833402935830133 0 0 0
277 0 1 0 7.6003392003673484 56.51857354490076 14.074683113532624 0 0 0
268 0 1 0 6.156912791175853 56.496700554312355 14.059126197361518 0 0 0
278 0 1 0 8.286194171938767 57.775887347055495 13.930294554962893 0 0 0
269 0 1 0 5.473485228755064 57.73259502377671 13.902659597409567 0 0 0
270 0 1 0 6.1433250112280735 58.9617781551885 13.81053164220653 0 0 0
261 0 1 0 5.489586344408691 60.19775770712773 13.834348698917076 0 0 0
8161 0 1 0 1.2028266531063132 60.267271441296415 13.454712006588379 1 0 0
304 0 1 0 1.857987194801805 63.96326279562443 13.622379744845212 0 0 0
260 0 1 0 4.078653683864638 60.19776152581966 13.76315659394754 0 0 0
311 0 1 0 3.274102392524813 61.48948037844671 13.69585140210337 0 0 0
8223 0 1 0 1.155188943706892 62.73768752567249 13.624936354323435 1 0 0
312 0 1 0 4.008472087814467 62.67266052641174 13.78446683109881 0 0 0
313 0 1 0 3.2615536332441275 63.91957537474775 13.748070204444963 0 0 0
302 0 1 0 1.859926121230708 61.4871559338811 13.615485354296297 0 0 0
332 0 1 0 8.30526835848649 62.666243946579286 13.791260971853971 0 0 0
280 0 1 0 8.31856719784166 60.22661203745354 13.79750880697368 0 0 0
331 0 1 0 7.604471430049944 61.44713381542319 13.818933264081739 0 0 0
333 0 1 0 7.640012588131275 63.94360069106705 13.744849016536504 0 0 0
324 0 1 0 6.2078546368084115 63.89571222670534 13.742946342295769 0 0 0
322 0 1 0 6.180320433212144 61.44455133022577 13.898164334337686 0 0 0
323 0 1 0 5.488422763848353 62.694676831989845 13.82044624774054 0 0 0
317 0 1 0 3.312446857875765 68.82229746138198 13.372950046126054 0 0 0
314 0 1 0 4.012592264169237 65.14095514123885 13.69340637379766 0 0 0
8225 0 1 0 1.1528868303375943 65.22928824875834 13.47248312483045 1 0 0
308 0 1 0 1.9592530380836948 68.87702442132687 13.188870088614562 0 0 0
315 0 1 0 3.3262641319876125 66.36572353154722 13.600114230131078 0 0 0
306 0 1 0 1.9336356441716056 66.4024683125647 13.484035978965055 0 0 0
316 0 1 0 4.00203178720188 67.60396172052286 13.574203484354666 0 0 0
8227 0 1 0 1.1854387141731315 67.63650454763327 13.321019283318101 1 0 0
328 0 1 0 6.13229324630703 68.85286554022107 13.532661524167235 0 0 0
325 0 1 0 5.51404588863532 65.16380737082648 13.742505776685794 0 0 0
326 0 1 0 6.195189500396953 66.41915214656797 13.670481325566993 0 0 0
327 0 1 0 5.412305638697012 67.62235191665314 13.526892476501812 0 0 0
334 0 1 0 8.328822564301014 65.19913555101044 13.770308808413231 0 0 0
335 0 1 0 7.621625750616398 66.44381031556162 13.676371100298713 0 0 0
337 0 1 0 7.547132119285525 68.84783821034122 13.569914333063977 0 0 0
336 0 1 0 8.357369874767544 67.65192481366154 13.604728183507468 0 0 0
321 0 1 0 5.515028191733163 72.53438427215542 13.590911241687555 0 0 0
382 0 1 0 6.2044699446550275 73.78499922943368 13.711093942290429 0 0 0
320 0 1 0 4.084309906136636 72.56147542539155 13.472798359778904 0 0 0
362 0 1 0 1.9325047323518172 73.7686615463626 13.452080251546878 0 0 0
371 0 1 0 3.3556246389907622 73.77554481879189 13.485228093522192 0 0 0
310 0 1 0 1.9236450495778403 71.35143519718561 13.227690977907288 0 0 0
8221 0 1 0 1.1404656670914877 72.57061959183153 13.228722683257363 1 0 0
319 0 1 0 3.323430141751344 71.34448162561512 13.432180893513232 0 0 0
8229 0 1 0 1.2640876929914884 70.07616484187925 13.240976273045419 1 0 0
318 0 1 0 4.009954104644275 70.03643927179269 13.409988105090573 0 0 0
330 0 1 0 6.189828889558686 71.27931938959146 13.586157641058216 0 0 0
391 0 1 0 7.612548163871976 73.8018822794581 13.740603869854127 0 0 0
339 0 1 0 7.606030445166364 71.31461140629827 13.616182955580866 0 0 0
340 0 1 0 8.328540911709482 72.5506211789428 13.721675400397922 0 0 0
338 0 1 0 8.358601218253991 70.10602595485746 13.618543267679893 0 0 0
329 0 1 0 5.436806052214245 70.04701398743887 13.448323718468004 0 0 0
374 0 1 0 3.9770718280673467 77.46235986285522 13.706657615547178 0 0 0
372 0 1 0 4.055496427612163 74.98690145361954 13.67905108936982 0 0 0
8285 0 1 0 1.1248663749597865 77.50016103256125 13.527859590793605 1 0 0
373 0 1 0 3.3287288658613847 76.21646384558022 13.718348018812277 0 0 0
364 0 1 0 1.860317128950879 76.260395769331 13.62763290811812 0 0 0
8283 0 1 0 1.1669412375095631 74.98288777927587 13.469178262341169 1 0 0
394 0 1 0 8.253128460585318 77.52562449996492 13.607970475261396 0 0 0
392 0 1 0 8.283499371092015 75.05539656768005 13.744690182147604 0 0 0
393 0 1 0 7.528397907077145 76.28376158978105 13.68796133731837 0 0 0
385 0 1 0 5.411127503022696 77.5239464090409 13.688647396490506 0 0 0
384 0 1 0 6.151615730129 76.25144891357648 13.778871208392827 0 0 0
383 0 1 0 5.474265893469258 74.99457420748935 13.751265070656139 0 0 0
395 0 1 0 7.556871054936591 78.74296233874747 13.54147723845687 0 0 0
375 0 1 0 3.3308094893535625 78.72127429477358 13.641495715169162 0 0 0
376 0 1 0 4.013215011707406 79.93738485459289 13.459200012485978 0 0 0
378 0 1 0 3.964977915614167 82.44566086524001 13.273910411570895 0 0 0
377 0 1 0 3.256203782087172 81.18283655281785 13.414895787631352 0 0 0
8287 0 1 0 1.1423104211811 79.93103839639993 13.387905512199666 1 0 0
368 0 1 0 1.863234321353839 81.17829160375443 13.513309607324487 0 0 0
366 0 1 0 1.8523028231373482 78.76839720049225 13.491159649422686 0 0 0
8289 0 1 0 1.1589659795979548 82.44271294255661 13.469392445308054 1 0 0
396 0 1 0 8.232636500325961 79.9911758204913 13.506336231347497 0 0 0
397 0 1 0 7.498023106248626 81.23599647519568 13.375455395929624 0 0 0
398 0 1 0 8.260293088138454 82.48985048782143 13.314836437836268 0 0 0
389 0 1 0 5.402058617809386 82.44859439281382 13.246674648719976 0 0 0
386 0 1 0 6.1411538315732335 78.74337863904385 13.504386465664835 0 0 0
388 0 1 0 6.084866852149098 81.20398605774234 13.31785446301534 0 0 0
387 0 1 0 5.393426681564134 79.96612132713551 13.361243242129651 0 0 0
432 0 1 0 3.998173965316472 87.30825629810857 12.98012246054588 0 0 0
380 0 1 0 3.9804404384023644 84.90578100863702 12.955764385878794 0 0 0
379 0 1 0 3.2511060646074896 83.62975255945696 13.106957800465612 0 0 0
431 0 1 0 3.2245754463864245 86.15684778824917 12.871815222651259 0 0 0
422 0 1 0 1.7956810826685525 86.14632828943824 13.002916361910803 0 0 0
8343 0 1 0 1.1013618537783592 87.39152101270886 13.123229711191188 1 0 0
8281 0 1 0 1.124378344415247 84.88050172436188 13.120250672184582 1 0 0
370 0 1 0 1.8636166767651074 83.6842614452262 13.166240766947094 0 0 0
381 0 1 0 5.3882180177112895 84.89253531773072 13.04252026278207 0 0 0
400 0 1 0 8.249841194098703 84.8667124763645 13.203055716114141 0 0 0
452 0 1 0 8.243293961931998 87.33616978715486 13.244932948037127 0 0 0
399 0 1 0 7.52656136957302 83.65709640624529 13.1186257120056 0 0 0
451 0 1 0 7.530846836602508 86.101574537604 13.237165537780479 0 0 0
442 0 1 0 6.130184539267003 86.13689735757535 13.016624133561589 0 0 0
390 0 1 0 6.066272581053486 83.64899423548295 13.183244627902223 0 0 0
443 0 1 0 5.431662352124957 87.33025412580554 12.950993684943688 0 0 0
434 0 1 0 3.979042487447503 89.82179915153093 13.102907252197587 0 0 0
8347 0 1 0 1.1073844111982387 92.29184351091558 12.95172770724949 1 0 0
436 0 1 0 3.9826053576476577 92.27100779266526 13.205109859034856 0 0 0
433 0 1 0 3.2522468224756365 88.59358666301556 13.035374935194573 0 0 0
8345 0 1 0 1.0947138502742058 89.85807641893793 12.963587481260365 1 0 0
424 0 1 0 1.8387436570196072 88.63851998723663 13.106597849471378 0 0 0
426 0 1 0 1.8215544271218793 91.04041289423644 13.000577830056555 0 0 0
435 0 1 0 3.2851579529516473 91.067840752411 13.11972380655288 0 0 0
453 0 1 0 7.567926269272078 88.61334019423528 13.13988855663117 0 0 0
444 0 1 0 6.130866174752309 88.54405674825297 13.021504418281966 0 0 0
445 0 1 0 5.4031605168564525 89.78923369806054 13.069087270761347 0 0 0
447 0 1 0 5.384940434086315 92.24569239245922 13.244353004812448 0 0 0
446 0 1 0 6.147402163164033 91.01182660259967 13.248981051858237 0 0 0
455 0 1 0 7.550732036236565 91.0640459490473 13.17318669787404 0 0 0
454 0 1 0 8.269890138559084 89.82429026460815 13.112106240422408 0 0 0
456 0 1 0 8.256228992390797 92.28728975606772 13.124621594936588 0 0 0
430 0 1 0 1.7702260240081489 96.03439188842101 13.417458400716484 0 0 0
439 0 1 0 3.2093206861816626 96.03347659682241 13.454833311124354 0 0 0
458 0 1 0 8.185472326237358 94.78216298062547 13.00938550758446 0 0 0
428 0 1 0 1.7515944294174777 93.52300999530826 13.077723730112803 0 0 0
8341 0 1 0 1.0954884544987156 97.28128053410306 13.3181676603335 1 0 0
437 0 1 0 3.227978644602567 93.54299006373161 13.174621347116208 0 0 0
438 0 1 0 3.9066019666937706 94.72423645253036 13.33964111440425 0 0 0
449 0 1 0 5.35467495941168 94.71538400873861 13.20981561171769 0 0 0
450 0 1 0 6.099984078739585 95.9939533996941 13.328373477800206 0 0 0
448 0 1 0 6.101054711852426 93.50688820813073 13.214860214132106 0 0 0
571 0 1 0 7.598701197280254 110.81606605729813 14.032624570731063 0 0 0
457 0 1 0 7.533758702746552 93.53589607204128 13.013565481933968 0 0 0
459 0 1 0 7.476188297572963 95.99372802562345 13.22106585941915 0 0 0
440 0 1 0 3.964714125443731 97.2196516492973 13.472792266761319 0 0 0
491 0 1 0 3.278815310416698 98.46349705317567 13.552979487561648 0 0 0
484 0 1 0 1.8647528252147925 100.94596980330002 13.681294453924036 0 0 0
493 0 1 0 3.255556528942039 100.96594161345195 13.66635264442382 0 0 0
492 0 1 0 4.000628830680049 99.68421344833924 13.611967126879657 0 0 0
8403 0 1 0 1.1325448749427638 99.75143425631181 13.572362525169204 1 0 0
482 0 1 0 1.8245982017969165 98.47060700431447 13.482694787510493 0 0 0
441 0 1 0 5.396837058777577 97.20347073534344 13.466418383086642 0 0 0
502 0 1 0 6.081471717564282 98.47880374114456 13.553307842814318 0 0 0
503 0 1 0 5.3992534304990825 99.68619211953403 13.559343774050328 0 0 0
513 0 1 0 7.550754565782224 100.98242890183589 13.394287030134684 0 0 0
504 0 1 0 6.128314399725953 100.9515169616282 13.51363834764654 0 0 0
460 0 1 0 8.205455564420356 97.22115189938151 13.141016571309226 0 0 0
519 0 1 0 7.5670791950474845 108.35280765391619 13.902672501175656 0 0 0
512 0 1 0 8.266637013363184 99.73316215304739 13.303492618004075 0 0 0
511 0 1 0 7.52700689083401 98.4716200435618 13.358225873923915 0 0 0
494 0 1 0 3.98804556664974 102.17269776988208 13.601047911271408 0 0 0
8405 0 1 0 1.1202488943662945 102.222754654616 13.648162526476812 1 0 0
495 0 1 0 3.245405642999577 103.40025557812282 13.545988306499165 0 0 0
497 0 1 0 3.254368320043665 105.9077541375531 13.729076084503593 0 0 0
496 0 1 0 3.9264158405576604 104.61443702721616 13.577726671292483 0 0 0
488 0 1 0 1.8251294337646617 105.92775332970108 13.641725004916388 0 0 0
486 0 1 0 1.8015078929641706 103.46012429801131 13.602492122912567 0 0 0
8407 0 1 0 1.0787136311591783 104.72408487938412 13.546399845684686 1 0 0
517 0 1 0 7.576970832399887 105.90060548473119 13.68111687321171 0 0 0
516 0 1 0 8.321884307646183 104.70354118893182 13.53770642960323 0 0 0
508 0 1 0 6.162844685169627 105.90895155708509 13.67624013104199 0 0 0
506 0 1 0 6.103406221895984 103.47271001119225 13.605287555298863 0 0 0
507 0 1 0 5.370049675482795 104.67489814113351 13.601292449522758 0 0 0
515 0 1 0 7.556041566696462 103.4802362252535 13.561911734624005 0 0 0
514 0 1 0 8.294350504285863 102.2378093259898 13.422243515132992 0 0 0
505 0 1 0 5.421743431358087 102.18959864038997 13.566834861736016 0 0 0
498 0 1 0 3.9630616372610676 107.1300906296528 13.911044388437542 0 0 0
500 0 1 0 3.955684854642679 109.60591457760991 13.88257718265577 0 0 0
499 0 1 0 3.214368602326779 108.41414711236912 13.84442131942418 0 0 0
542 0 1 0 1.8102946134254458 110.90301106818825 13.8894389879545 0 0 0
551 0 1 0 3.2107427639699786 110.87225759474379 13.96076706090933 0 0 0
8409 0 1 0 1.0777189417409592 107.19968908373112 13.733687293813768 1 0 0
490 0 1 0 1.7947562063897207 108.41459700732202 13.749593685153421 0 0 0
8401 0 1 0 1.1254450594072705 109.70110759323609 13.802643026212296 1 0 0
518 0 1 0 8.279856084172435 107.16007624596757 13.74169043946095 0 0 0
562 0 1 0 6.14195798174692 110.81170463145871 14.04213534791622 0 0 0
510 0 1 0 6.102463594887947 108.37158957545701 13.916007147884153 0 0 0
509 0 1 0 5.380585637847371 107.13322588113122 13.82733838889744 0 0 0
520 0 1 0 8.273765608577918 109.59710575321093 13.937231940910577 0 0 0
501 0 1 0 5.39021298377819 109.6376561612993 13.98230548359899 0 0 0
8349 0 1 0 1.0341212387531777 94.78963228836369 13.202260525857085 1 0 0
544 0 1 0 1.8255687476614222 113.35345646846243 14.189552868817902 0 0 0
552 0 1 0 3.9890330381255334 112.08209010064984 14.037144740690014 0 0 0
553 0 1 0 3.220270392293262 113.34361992929372 14.074057108895241 0 0 0
554 0 1 0 3.926677119458385 114.57037907790175 14.12468366848736 0 0 0
8463 0 1 0 1.1001027677921718 112.14773071172225 14.056165424246242 1 0 0
8465 0 1 0 1.1217374290865998 114.58598218395761 14.314415890267158 1 0 0
555 0 1 0 3.2376287475788343 115.7860358108157 14.215113382832063 0 0 0
546 0 1 0 1.780018910675609 115.80384791495133 14.39134569958762 0 0 0
565 0 1 0 5.382154861784731 114.55917567826225 14.084700354969506 0 0 0
563 0 1 0 5.402364523671166 112.06279537595414 14.072979856359908 0 0 0
564 0 1 0 6.070900542338123 113.29733046746026 14.099432507410313 0 0 0
572 0 1 0 8.279349132135932 112.06640113707418 14.137822664533546 0 0 0
573 0 1 0 7.542327064201698 113.28913979090706 14.124102753839544 0 0 0
574 0 1 0 8.214247864456064 114.54431676081875 14.061841788117755 0 0 0
575 0 1 0 7.5677857979222605 115.84830275992688 14.176173862140011 0 0 0
566 0 1 0 6.1258547885248795 115.82222339711518 14.199619713822539 0 0 0
624 0 1 0 6.158638852456873 125.7294839535254 14.97638361330889 0 0 0
558 0 1 0 3.8987419554024783 119.5264557970117 14.590128058122735 0 0 0
556 0 1 0 3.946746534559067 117.01455664051781 14.353597067806964 0 0 0
557 0 1 0 3.2114476766439415 118.28549627630413 14.412760201269338 0 0 0
8469 0 1 0 1.101387285817666 119.46392271745847 14.575840364247172 1 0 0
8467 0 1 0 1.0218534189265214 117.03199893142177 14.386968607002355 1 0 0
548 0 1 0 1.8064481427505157 118.2391216928381 14.483735239646926 0 0 0
625 0 1 0 5.389029048223426 126.8846375586151 15.205381451887924 0 0 0
578 0 1 0 8.267752397873615 119.52618253225945 14.40911477614829 0 0 0
577 0 1 0 7.500127113552826 118.30105454174608 14.24732677406371 0 0 0
576 0 1 0 8.241685549179797 117.09103682316176 14.217140607842666 0 0 0
568 0 1 0 6.07863545227284 118.29723535260814 14.328599116701344 0 0 0
569 0 1 0 5.371977439086595 119.53963321992676 14.517387011016304 0 0 0
567 0 1 0 5.387277874182844 117.05162109146939 14.26724939012292 0 0 0
635 0 1 0 7.580588224275092 128.0746971767549 15.191427614633591 0 0 0
8523 0 1 0 1.1421584204611719 124.42881203268625 15.09557305855919 1 0 0
612 0 1 0 3.9723861155798144 124.55431520933476 14.88487918668766 0 0 0
602 0 1 0 1.839595181240911 123.2278558652658 14.88112071972662 0 0 0
560 0 1 0 3.9123840767103375 122.02273244020888 14.739622649186032 0 0 0
611 0 1 0 3.255277851958418 123.30331368242513 14.805459044409385 0 0 0
8461 0 1 0 1.1215638862615844 122.01056961454509 14.674442991600118 1 0 0
559 0 1 0 3.2384055968039362 120.77393193302021 14.66792990742302 0 0 0
550 0 1 0 1.807138242615101 120.75257091435031 14.604280189708538 0 0 0
580 0 1 0 8.236804620856296 121.96472953649808 14.649462649370907 0 0 0
631 0 1 0 7.555168337795871 123.22603754989795 14.860527125009515 0 0 0
579 0 1 0 7.530746247850392 120.70568392000622 14.614130696795636 0 0 0
632 0 1 0 8.268927471149729 124.43987607390422 14.879596312619872 0 0 0
622 0 1 0 6.097131588150987 123.22616894771882 14.753381798262813 0 0 0
623 0 1 0 5.401515992695491 124.48352420153437 14.792999422791377 0 0 0
561 0 1 0 5.375673762887605 122.00242120744294 14.676342045489331 0 0 0
570 0 1 0 6.1029322078362185 120.76618955787897 14.671880943691411 0 0 0
633 0 1 0 7.547146240362851 125.65563485622124 15.01360739402407 0 0 0
626 0 1 0 6.140194908456939 128.08740167070906 15.307838129047271 0 0 0
616 0 1 0 3.9659723272819876 129.3444013859161 15.499471727764103 0 0 0
615 0 1 0 3.2706435215812264 128.14928761852912 15.401974788201349 0 0 0
8527 0 1 0 1.0776161202188348 129.28034718195502 15.59664420176736 1 0 0
606 0 1 0 1.796796591052425 128.09153953911047 15.44925172111661 0 0 0
8525 0 1 0 1.1257628782252933 126.84093664888475 15.407582275475988 1 0 0
604 0 1 0 1.8484382818922886 125.6577121877871 15.25543538227444 0 0 0
613 0 1 0 3.2783919514012414 125.70854111882684 15.13005248184919 0 0 0
614 0 1 0 3.9780779842498077 126.90246377248656 15.145068812514248 0 0 0