LAMMPS data file via write_data, version 4 Feb 2025, timestep = 300000, units = metal

8640 atoms
1 atom types

0 154.00799999999998 xlo xhi
0 148.2 ylo yhi
0 151.07609208607428 zlo zhi

Masses

1 12.01099999691024

Atoms # full

7259 0 1 0 3.2003212307870714 3.0248816316740843 54.804426800926336 1 0 0
7250 0 1 0 1.7990546445872946 3.0505443147603533 54.767333939636046 1 0 0
7248 0 1 0 1.738272251373551 0.47850920621294013 54.83201640214385 1 0 0
7257 0 1 0 3.183166344780079 0.529744166207679 54.97186196143163 1 0 0
7258 0 1 0 3.8656168772409663 1.7359247924433776 54.89789627529086 1 0 0
7260 0 1 0 3.8660133126550655 4.24466604658804 54.89036339555665 1 0 0
7249 0 1 0 1.0861505121590715 1.8095238384116532 54.70161488044844 1 0 0
7241 0 1 0 1.050799723934231 4.252515803997812 54.80320337971397 1 0 0
7940 0 1 0 8.165127049625944 4.241160614260412 54.78111802495842 1 0 0
7930 0 1 0 5.943444269868115 3.001854628351537 54.86218293949708 1 0 0
7201 0 1 0 5.295677565740758 4.229871456055084 54.89659302528142 1 0 0
7209 0 1 0 5.287436204057554 1.7863967842797592 54.99675209023178 1 0 0
7928 0 1 0 5.986014267969215 0.5266683958455157 55.09090232512934 1 0 0
7938 0 1 0 8.128340751828816 1.8004611720697699 54.90172040775634 1 0 0
7939 0 1 0 7.450048411261731 3.0343931192213858 54.78989080932898 1 0 0
7937 0 1 0 7.437489498859151 0.5071541248621817 55.03948335806462 1 0 0
7960 0 1 0 12.394239219378884 4.224169459102569 54.42894609453132 1 0 0
7949 0 1 0 9.578602764460097 1.764388681675522 54.88441124373552 1 0 0
7941 0 1 0 9.605544162543346 4.269174935337923 54.735399232895475 1 0 0
7948 0 1 0 10.276038255773528 0.5289443343077439 55.03530715099752 1 0 0
7950 0 1 0 10.299708156731572 3.007282995572434 54.7707264127521 1 0 0
7958 0 1 0 12.422154557013158 1.7425325301530437 54.68741431590675 1 0 0
7959 0 1 0 11.721321710523382 2.975397584839866 54.63254808208216 1 0 0
7957 0 1 0 11.692143463652064 0.5140566140287844 54.84360093510592 1 0 0
7302 0 1 0 1.7576309034956326 5.476349761471544 54.81874335699381 1 0 0
7311 0 1 0 3.1491505587558923 5.497122994364491 54.92450825289773 1 0 0
7313 0 1 0 3.1203026721854017 7.990405273659479 54.81337059147265 1 0 0
7304 0 1 0 1.718745596987882 7.989705878232002 54.770019600761835 1 0 0
7312 0 1 0 3.8426358992466434 6.737754595217948 54.81112690730683 1 0 0
7303 0 1 0 1.013104436723109 6.733617295869397 54.81709735383518 1 0 0
7305 0 1 0 1.0080711360313086 9.231952734495493 54.6675219513344 1 0 0
7314 0 1 0 3.8420173984379633 9.208551363911527 54.76091014342597 1 0 0
7263 0 1 0 5.279140831006283 6.708668709353533 54.79931078695972 1 0 0
7982 0 1 0 6.007000800310368 5.468835048310613 54.85168878447638 1 0 0
7993 0 1 0 7.421146880708294 7.962936405617949 54.61200817276039 1 0 0
7984 0 1 0 5.972213230174934 7.9739560647121 54.70755979312036 1 0 0
7991 0 1 0 7.446964914288293 5.4824685040564995 54.82933584621337 1 0 0
7992 0 1 0 8.11685763338999 6.69649864512954 54.65441985271647 1 0 0
7994 0 1 0 8.134229634577576 9.245883696850228 54.41328031246329 1 0 0
7265 0 1 0 5.273458635291653 9.204419456765246 54.56923271712578 1 0 0
8011 0 1 0 11.689002825456038 5.421492105831874 54.41039050627868 1 0 0
8012 0 1 0 12.403057787743087 6.710023263095805 54.38772929944901 1 0 0
8003 0 1 0 9.532292760273277 6.723668053241289 54.48436021687101 1 0 0
8004 0 1 0 10.255675729152582 7.956348957848476 54.32766588135383 1 0 0
8013 0 1 0 11.663272462261801 7.890340463686703 54.26077894051679 1 0 0
8002 0 1 0 10.302156436330641 5.509075086439597 54.54155731421678 1 0 0
8005 0 1 0 9.53202249054064 9.183830043106536 54.25735329649635 1 0 0
8014 0 1 0 12.386997659445393 9.141949084281602 54.09733317492502 1 0 0
7317 0 1 0 3.1614640099083204 12.948456775316176 54.420194871011105 1 0 0
7308 0 1 0 1.771774367478669 12.892232739731535 54.377038099825704 1 0 0
7316 0 1 0 3.8739657310211264 11.67810259820588 54.49132919926882 1 0 0
7306 0 1 0 1.7078318122246603 10.503333959032767 54.591741161225244 1 0 0
7315 0 1 0 3.1588547928713653 10.474767314562866 54.55795108333198 1 0 0
7307 0 1 0 0.9866771354212771 11.70309521484025 54.402868358571375 1 0 0
7267 0 1 0 5.275084141373979 11.642286163982758 54.33503911467381 1 0 0
7986 0 1 0 6.026685236586781 10.440682574892461 54.38083087124959 1 0 0
7995 0 1 0 7.415414256751959 10.44120511925978 54.26873529163179 1 0 0
7996 0 1 0 8.098821718554264 11.63357434129946 54.04255113304576 1 0 0
7988 0 1 0 5.960896634400497 12.896310016154795 54.246101379301784 1 0 0
7997 0 1 0 7.389521110829853 12.85449520933773 54.03493476741923 1 0 0
8007 0 1 0 9.505369952159121 11.606830970148248 53.92639899300055 1 0 0
8006 0 1 0 10.22279690290202 10.390607066667526 53.95253048069287 1 0 0
8017 0 1 0 11.680262796458912 12.850158772162143 53.88139560043633 1 0 0
8008 0 1 0 10.279277497125989 12.872366550595606 53.75435704625845 1 0 0
8016 0 1 0 12.405833839671125 11.593976599923025 53.79597895358613 1 0 0
8015 0 1 0 11.626310278825098 10.389306494988542 53.97150364005923 1 0 0
7301 0 1 0 0.9882771993701436 16.615177801988143 54.5230195065596 1 0 0
7362 0 1 0 1.7272441691418738 17.81231057483667 54.644069142369595 1 0 0
7310 0 1 0 1.6782831694132017 15.382498905009545 54.4351715318443 1 0 0
7309 0 1 0 1.0386831105344188 14.125449695060421 54.34847406217955 1 0 0
7318 0 1 0 3.851590666867468 14.191921008409562 54.42814094296064 1 0 0
7371 0 1 0 3.1539716775848294 17.788428069688845 54.60903657625169 1 0 0
7320 0 1 0 3.8547985760848777 16.619382137323576 54.49805321927034 1 0 0
7319 0 1 0 3.1038873972325676 15.392650998290156 54.5329493196934 1 0 0
7269 0 1 0 5.284079248687576 14.162431851273423 54.38320258932619 1 0 0
7261 0 1 0 5.282781047462194 16.596572990102903 54.45932155868747 1 0 0
7990 0 1 0 5.9970167458050305 15.36306487061619 54.432923069837464 1 0 0
8042 0 1 0 5.989289014679934 17.835327344539998 54.4687705147858 1 0 0
8051 0 1 0 7.415002494865465 17.844669500876623 54.416323417259164 1 0 0
8000 0 1 0 8.130087696029713 16.562358091513754 54.342391056111445 1 0 0
7999 0 1 0 7.411900001991788 15.286151325738953 54.274640042998975 1 0 0
7998 0 1 0 8.06044234005243 14.0834323789206 54.1321044708653 1 0 0
8020 0 1 0 12.386619895145762 16.531648400015747 54.11169181821091 1 0 0
8071 0 1 0 11.67327242562499 17.757216089751704 54.261437414448196 1 0 0
8019 0 1 0 11.647693540744134 15.328368761734064 54.07228158071563 1 0 0
8018 0 1 0 12.37965324942131 14.067863850333172 53.85731453635546 1 0 0
8062 0 1 0 10.254317139093972 17.76457708511148 54.36401918766392 1 0 0
8010 0 1 0 10.207835578409835 15.296459963228893 54.13246888891541 1 0 0
8001 0 1 0 9.541073647736141 16.530534686715317 54.302890672989506 1 0 0
8009 0 1 0 9.503653462555738 14.056194852880212 53.969956096069374 1 0 0
7374 0 1 0 3.8431318992438026 21.549779602463097 54.73035312180237 1 0 0
7363 0 1 0 0.9817411634336178 19.049536849809993 54.76574422003593 1 0 0
7375 0 1 0 3.1144492263004766 22.78680081026193 54.7158556714573 1 0 0
7364 0 1 0 1.6973164279785984 20.26463072697746 54.66673698498926 1 0 0
7366 0 1 0 1.7223410777458221 22.756437980721905 54.70577762502454 1 0 0
7365 0 1 0 1.0255977472462163 21.567549196082442 54.69266023319843 1 0 0
7373 0 1 0 3.146171083203939 20.30027886582294 54.699161539340565 1 0 0
7372 0 1 0 3.8527262987689714 19.046959797564277 54.74740284206668 1 0 0
7325 0 1 0 5.26959678952989 21.49944761979637 54.61598575551196 1 0 0
8046 0 1 0 5.981855567256315 22.737003053683324 54.5662979859908 1 0 0
8054 0 1 0 8.162324160717324 21.522589751188043 54.34124672428935 1 0 0
8053 0 1 0 7.462089583433479 20.272354148260163 54.450080686365844 1 0 0
8055 0 1 0 7.443973433839992 22.753666551307315 54.48214064083924 1 0 0
8044 0 1 0 6.040160814608039 20.298156000141457 54.5520097912198 1 0 0
8052 0 1 0 8.15362453555232 19.07360551510635 54.405023770697696 1 0 0
7323 0 1 0 5.28662663979212 19.03136211846313 54.64736950227797 1 0 0
8073 0 1 0 11.696736917580553 20.263678096900918 54.10262285365805 1 0 0
8074 0 1 0 12.409357619681346 21.481540923807096 54.09501290762267 1 0 0
8075 0 1 0 11.680535734926345 22.711420030974796 53.91908653989291 1 0 0
8065 0 1 0 9.574966836887674 21.4750273295857 54.23907622332608 1 0 0
8064 0 1 0 10.28955019881218 20.241922887732134 54.23189528934547 1 0 0
8066 0 1 0 10.238701544852383 22.71346652544197 54.1155643683109 1 0 0
8072 0 1 0 12.375632201911452 19.0039839209319 54.192621378227216 1 0 0
8063 0 1 0 9.560714425851506 19.026929273925447 54.36748474778899 1 0 0
7368 0 1 0 1.6724540757298947 25.270812002282383 54.653698593961096 1 0 0
7367 0 1 0 0.9818528337246931 24.05687084483251 54.66932655011105 1 0 0
7376 0 1 0 3.831487228027046 24.00715149923144 54.74894983285788 1 0 0
7377 0 1 0 3.1591056483286577 25.299019748966746 54.77723741302185 1 0 0
7369 0 1 0 0.9696522589024724 26.476052025080705 54.54440607848762 1 0 0
7370 0 1 0 1.6303789086070515 27.708008578456568 54.47290633820075 1 0 0
7378 0 1 0 3.829114190614384 26.525590563584846 54.543971601888536 1 0 0
7379 0 1 0 3.118488847219279 27.727923667527275 54.46761809262033 1 0 0
7327 0 1 0 5.259603819763248 23.99633185781532 54.63592725233842 1 0 0
7329 0 1 0 5.22912058526783 26.485407229627747 54.44867669881633 1 0 0
8059 0 1 0 7.41181392151915 27.664524036550212 54.219300092647536 1 0 0
8048 0 1 0 5.992911317914757 25.23466877139777 54.53463211889989 1 0 0
8056 0 1 0 8.114109624094267 23.957508866105886 54.356475204830254 1 0 0
8058 0 1 0 8.136855016695552 26.445984055469406 54.31382490527929 1 0 0
8057 0 1 0 7.4294094299041795 25.2250384778706 54.45130512567601 1 0 0
8067 0 1 0 9.519415203132207 23.95541000198023 54.18891751656531 1 0 0
8069 0 1 0 9.520863223431165 26.44542373004799 54.201157651629664 1 0 0
8077 0 1 0 11.662300708744738 25.180568140135453 53.74883829252564 1 0 0
8068 0 1 0 10.273315252613196 25.197466113584507 54.104179988548914 1 0 0
8076 0 1 0 12.403826154136164 23.902457474691385 53.736608245527634 1 0 0
8078 0 1 0 12.339974353735164 26.441545670395932 53.6035435517355 1 0 0
8079 0 1 0 11.63825586598308 27.652189024149607 53.652560794068584 1 0 0
7432 0 1 0 3.747253165419873 31.38423540828298 53.861257639330745 1 0 0
7423 0 1 0 0.9731268167907778 31.435501649572625 54.11901105086083 1 0 0
7422 0 1 0 1.6272203980787594 30.17284526388219 54.198432180228124 1 0 0
7380 0 1 0 3.8345222241003776 28.970591779751235 54.23305737897721 1 0 0
7431 0 1 0 3.076916562890497 30.181410381923076 54.07842440182134 1 0 0
7361 0 1 0 0.8963902142049828 28.930989719160188 54.334590206855786 1 0 0
8050 0 1 0 5.981974607119286 27.666299541992014 54.25856728002253 1 0 0
7383 0 1 0 5.190526123559999 31.31980389254924 53.85105237193148 1 0 0
7321 0 1 0 5.22419107636878 28.917852015661023 54.122133713784066 1 0 0
8102 0 1 0 5.940504428139695 30.12585689237598 54.0061342414576 1 0 0
8111 0 1 0 7.359385432468794 30.10422411278755 53.917648109978416 1 0 0
8060 0 1 0 8.109329744894405 28.890911120950527 53.99525954988209 1 0 0
8112 0 1 0 8.077092589795223 31.35700116583092 53.69692913062356 1 0 0
8070 0 1 0 10.201406109696663 27.67817141241776 53.79936075980753 1 0 0
8061 0 1 0 9.470163954576064 28.909660606439342 53.78176994191752 1 0 0
8122 0 1 0 10.18270601165813 30.145468384155496 53.49019159122556 1 0 0
8131 0 1 0 11.585784826404765 30.174998871555452 53.46030611608092 1 0 0
8132 0 1 0 12.321227508992914 31.410857010398033 53.37571864993591 1 0 0
8080 0 1 0 12.34077452533224 28.922253326046743 53.39388660021923 1 0 0
8123 0 1 0 9.48204219354019 31.36526104037747 53.615724370077096 1 0 0
7434 0 1 0 3.754125077576383 33.83261190965452 53.46735483554775 1 0 0
7436 0 1 0 3.792519620403855 36.24535226019538 53.32853000075499 1 0 0
7435 0 1 0 3.054345388728005 35.04046451127552 53.35389428216471 1 0 0
7425 0 1 0 0.9342620883816266 33.89073738249385 53.71979909519476 1 0 0
7427 0 1 0 0.9818822813663082 36.33047647856782 53.571446959825956 1 0 0
7433 0 1 0 3.055306422401827 32.613820776371305 53.61820562658464 1 0 0
7426 0 1 0 1.6459434663599946 35.08347244286295 53.46059754758541 1 0 0
7424 0 1 0 1.619240447900016 32.66339749484349 53.83051047207303 1 0 0
7385 0 1 0 5.179735582758183 33.782830462784275 53.60688258019357 1 0 0
7387 0 1 0 5.18439142038487 36.26918469010308 53.41369828518098 1 0 0
8106 0 1 0 5.949874142036844 35.05672294130389 53.55525599344068 1 0 0
8113 0 1 0 7.322751035682872 32.58866221549515 53.72210381434061 1 0 0
8115 0 1 0 7.361896616852068 35.110339161629206 53.63577502234066 1 0 0
8104 0 1 0 5.856783066328882 32.53863267554487 53.80951880349412 1 0 0
8116 0 1 0 8.032648675395976 36.331416843425025 53.53999099846508 1 0 0
8114 0 1 0 8.044913629065713 33.812420384525154 53.68104067182125 1 0 0
8133 0 1 0 11.617637771611 32.63717946946227 53.48737311251059 1 0 0
8136 0 1 0 12.264286771903407 36.345228531708095 53.28983841115701 1 0 0
8134 0 1 0 12.332321929021374 33.83920805332276 53.39601819196121 1 0 0
8127 0 1 0 9.452647337825423 36.357228928186544 53.53788268880545 1 0 0
8125 0 1 0 9.485669984584733 33.82791840532611 53.696955831679254 1 0 0
8124 0 1 0 10.184552417386369 32.61503475366978 53.61792680627318 1 0 0
8126 0 1 0 10.190773805951622 35.09462904222367 53.63280000642767 1 0 0
8135 0 1 0 11.598151752007869 35.09434366309404 53.48930087411474 1 0 0
7438 0 1 0 3.7925318782764332 38.7848278397468 53.478641988219586 1 0 0
7439 0 1 0 3.062125450912356 39.998553162448594 53.57306715267121 1 0 0
7440 0 1 0 3.7942695699040176 41.24869865971633 53.55827469905656 1 0 0
7437 0 1 0 3.063644639648355 37.51520678490186 53.30154101301564 1 0 0
7430 0 1 0 1.6875503839860662 40.058073193002144 53.5938570604316 1 0 0
7428 0 1 0 1.6440777147371772 37.60056489198112 53.46900766101552 1 0 0
7429 0 1 0 0.922962191238442 38.83185104475233 53.597288582597805 1 0 0
7421 0 1 0 0.9558441876137972 41.29917470361484 53.67353176180483 1 0 0
7389 0 1 0 5.22494871232038 38.78352962788595 53.45298226261902 1 0 0
8108 0 1 0 5.934286485364885 37.56674296404807 53.38528700740904 1 0 0
8110 0 1 0 5.895492779609567 40.0452974740575 53.479290398569844 1 0 0
8117 0 1 0 7.343217615440445 37.59888072481711 53.46348434167484 1 0 0
8119 0 1 0 7.343863722251201 40.072698686574014 53.56116378867263 1 0 0
8118 0 1 0 8.06026669939118 38.829814696623714 53.48569101811284 1 0 0
8120 0 1 0 8.051903987503742 41.35229906767375 53.513204454121926 1 0 0
7381 0 1 0 5.200201493916633 41.27801677535906 53.519617988595385 1 0 0
8129 0 1 0 9.464000011827595 38.840225693236285 53.59605726976392 1 0 0
8128 0 1 0 10.216727028518577 37.60600674559077 53.50286894626406 1 0 0
8130 0 1 0 10.202866153733 40.05375776840015 53.512074638301314 1 0 0
8121 0 1 0 9.454978966583562 41.36190023818946 53.38257869002881 1 0 0
8139 0 1 0 11.61083778745211 40.08511288063985 53.43780985857557 1 0 0
8137 0 1 0 11.584829270481714 37.60543673148234 53.43272622155357 1 0 0
8138 0 1 0 12.397412526507802 38.80471417789114 53.4385888887871 1 0 0
8140 0 1 0 12.335303925210098 41.310240125380595 53.302096125262004 1 0 0
7491 0 1 0 3.144987439400548 42.45907002587765 53.500068644839075 1 0 0
7492 0 1 0 3.8087681228694796 43.73426639798842 53.57037065867367 1 0 0
7493 0 1 0 3.1111927873161425 44.97163036154055 53.652884059341616 1 0 0
7484 0 1 0 1.702579284463541 44.93556823929826 53.73733140107894 1 0 0
7482 0 1 0 1.6446411395708527 42.49929458563723 53.62602301969797 1 0 0
7483 0 1 0 0.9960295830876938 43.72746964416334 53.74726123452662 1 0 0
7494 0 1 0 3.796192088189795 46.22457600931903 53.743524873763086 1 0 0
7485 0 1 0 0.9923779127800026 46.19492465342031 53.86258449091995 1 0 0
7443 0 1 0 5.249209363593347 43.74928723995016 53.613894456232934 1 0 0
8172 0 1 0 8.06977569764485 43.82280051153273 53.420067812192066 1 0 0
8162 0 1 0 5.934014894615539 42.5186986147471 53.64827147083073 1 0 0
8171 0 1 0 7.359044073751334 42.57843294025027 53.538161415177576 1 0 0
8173 0 1 0 7.337496117107059 45.03785541691081 53.507087359163016 1 0 0
8164 0 1 0 5.900844915866477 45.01583461063378 53.61746699849299 1 0 0
8174 0 1 0 8.015906702747674 46.24733967785672 53.39843028311904 1 0 0
8191 0 1 0 11.635025142937407 42.51727630880586 53.21256921698932 1 0 0
8182 0 1 0 10.209366293864198 42.57681819803495 53.29079933710646 1 0 0
8183 0 1 0 9.505941532832326 43.83479512195176 53.295954263755874 1 0 0
8193 0 1 0 11.644869701018932 44.977316776092245 53.17412107505558 1 0 0
8192 0 1 0 12.341214208956481 43.75309625920923 53.12350723882536 1 0 0
8184 0 1 0 10.209779385694286 45.01189759275878 53.282148010684075 1 0 0
8194 0 1 0 12.318626851523991 46.197672928104865 53.1958323884367 1 0 0
8185 0 1 0 9.450724701474536 46.236501181392185 53.30132633698883 1 0 0
7497 0 1 0 3.0762798997662832 49.91992087014173 53.55067165138738 1 0 0
7495 0 1 0 3.0604345170000364 47.4434130248276 53.74622593738081 1 0 0
7496 0 1 0 3.7955645828538906 48.75322056139512 53.660443362095 1 0 0
7486 0 1 0 1.6464000991599825 47.44569248731343 53.80887027238967 1 0 0
7488 0 1 0 1.663274357970211 49.946337671020196 53.64235045938666 1 0 0
7487 0 1 0 0.9500427662683631 48.720286821840155 53.82814824250068 1 0 0
7445 0 1 0 5.204507833484518 46.25960774458218 53.688240225893445 1 0 0
7447 0 1 0 5.217138212607297 48.6678172829796 53.606687472388465 1 0 0
8166 0 1 0 5.978390043345298 47.47428803939791 53.72338997556886 1 0 0
8175 0 1 0 7.357737763603473 47.472151675327225 53.52473965429623 1 0 0
8176 0 1 0 8.051152402591788 48.704064106587595 53.511664612989996 1 0 0
8168 0 1 0 5.944010660443799 49.89798628962551 53.57799797747627 1 0 0
8177 0 1 0 7.322000031460355 49.95668288702699 53.57174184349839 1 0 0
8186 0 1 0 10.181186540963058 47.46725322553205 53.38749342177158 1 0 0
8195 0 1 0 11.602127423255606 47.479924222008606 53.29698555320539 1 0 0
8196 0 1 0 12.372275833436545 48.70528548370943 53.28239812517407 1 0 0
8187 0 1 0 9.438458660511774 48.69524510028269 53.446495415368766 1 0 0
8188 0 1 0 10.189926597123186 49.924992464914475 53.41698855689947 1 0 0
8197 0 1 0 11.664283780799522 49.96172878138564 53.372086005728086 1 0 0
7500 0 1 0 3.863391193413098 53.56125900059415 53.43566394776884 1 0 0
7481 0 1 0 0.89889546346532 53.60249408209374 53.270010246463 1 0 0
7490 0 1 0 1.6464550302750565 52.353842908824745 53.436036279535976 1 0 0
7542 0 1 0 1.6777849776969374 54.863226193803705 53.20967442470917 1 0 0
7499 0 1 0 3.091665112485056 52.40118812206937 53.49790101215813 1 0 0
7498 0 1 0 3.808837714959773 51.180601551821006 53.513198894349195 1 0 0
7551 0 1 0 3.1078319078060073 54.8613150502314 53.33838427018796 1 0 0
7489 0 1 0 0.950454937844389 51.200675009399895 53.62501043873044 1 0 0
8222 0 1 0 5.942458981895146 54.852804008918596 53.429955216305146 1 0 0
8231 0 1 0 7.368331512411234 54.949331329033754 53.44956482300331 1 0 0
7449 0 1 0 5.25245257542924 51.170716895554186 53.46061658086345 1 0 0
7441 0 1 0 5.276510499931555 53.58015079553347 53.40019013422948 1 0 0
8178 0 1 0 8.070251828271 51.19832084010027 53.59239526581858 1 0 0
8170 0 1 0 5.961922670985866 52.36024004255571 53.42540277419129 1 0 0
8179 0 1 0 7.3756692013075815 52.435063770340456 53.55381864069336 1 0 0
8180 0 1 0 8.080027239371873 53.71161528927726 53.611852323752004 1 0 0
8242 0 1 0 10.247735264210666 54.83574561197194 53.566994676127464 1 0 0
8190 0 1 0 10.258202309917879 52.3973487856045 53.5830559034046 1 0 0
8251 0 1 0 11.66972786660244 54.83292917207807 53.5814522091382 1 0 0
8200 0 1 0 12.360391741819381 53.59957816305084 53.762309280488985 1 0 0
8181 0 1 0 9.533815424847894 53.60424130890751 53.558184821656496 1 0 0
8189 0 1 0 9.506195856170592 51.16936494781161 53.56149115170456 1 0 0
8199 0 1 0 11.670336653192752 52.407368330169795 53.64543841215785 1 0 0
8198 0 1 0 12.383344724288582 51.136392082700986 53.54995906626395 1 0 0
7552 0 1 0 3.8376272262549946 56.114943011855615 53.33995235653871 1 0 0
7554 0 1 0 3.8009736967829277 58.56502661479978 53.40355989854514 1 0 0
7553 0 1 0 3.1090295116233304 57.309159238412406 53.299628561959175 1 0 0
7544 0 1 0 1.6269913860196419 57.312452576802706 53.18407925394402 1 0 0
7546 0 1 0 1.6542147436707948 59.80462842423328 53.16460229488323 1 0 0
7555 0 1 0 3.1271032176965687 59.7809398069063 53.35096841848472 1 0 0
7543 0 1 0 0.9103800213285663 56.1118405708836 53.20864612482248 1 0 0
7545 0 1 0 0.9287348204546574 58.56458651382959 53.07147327846832 1 0 0
7503 0 1 0 5.253159983716562 56.08393744440957 53.35950871670558 1 0 0
7505 0 1 0 5.241898272197197 58.56791683342126 53.53893332257574 1 0 0
8234 0 1 0 8.05475402608319 58.56659419645431 53.42442657331571 1 0 0
8224 0 1 0 5.92042558662905 57.33367679589725 53.50194144340639 1 0 0
8233 0 1 0 7.353427358804042 57.339007865913246 53.47580015106156 1 0 0
8232 0 1 0 8.060985051967377 56.13025653899556 53.38102739146025 1 0 0
8226 0 1 0 5.97034782931387 59.80801464290221 53.525962929327 1 0 0
8235 0 1 0 7.371505802567628 59.79947302417819 53.398548371464614 1 0 0
8245 0 1 0 9.512892618571767 58.549348301323995 53.385938536988704 1 0 0
8243 0 1 0 9.504748130516235 56.069316087388906 53.35174172128238 1 0 0
8244 0 1 0 10.238900375935597 57.324818793286155 53.325119568447114 1 0 0
8253 0 1 0 11.667603386290638 57.28513634343408 53.41588497521673 1 0 0
8254 0 1 0 12.405174698251292 58.5292419551311 53.482096186427825 1 0 0
8252 0 1 0 12.394251946668792 56.0188677607124 53.517121842917824 1 0 0
8246 0 1 0 10.216682196337278 59.774392349328956 53.48920113615821 1 0 0
8255 0 1 0 11.654216253676257 59.74905626338961 53.522581438419245 1 0 0
7556 0 1 0 3.828772655654296 61.017411033431586 53.37075588095233 1 0 0
7548 0 1 0 1.704442064952988 62.23675454289949 53.14479763839384 1 0 0
7558 0 1 0 3.8002732560954766 63.458320601182955 53.240355454709864 1 0 0
7557 0 1 0 3.1259276618687113 62.261642054784325 53.28709470275584 1 0 0
7549 0 1 0 0.9802753786290092 63.43219920539778 53.060730340773645 1 0 0
7547 0 1 0 0.9560263630882733 61.03877440241887 53.07573969670048 1 0 0
7550 0 1 0 1.701797615143341 64.73270762184707 52.96097749655601 1 0 0
7559 0 1 0 3.079947767231623 64.70290660166745 53.09900681392081 1 0 0
7507 0 1 0 5.230185757863183 61.024149981316185 53.43642313566235 1 0 0
7509 0 1 0 5.2508771044695175 63.5140992750947 53.31622052956932 1 0 0
8228 0 1 0 5.942715024993337 62.28294413896533 53.41178947890436 1 0 0
8237 0 1 0 7.361652693052689 62.280661675961845 53.46411234344433 1 0 0
8236 0 1 0 8.106459212784806 61.01797121061136 53.45207482224677 1 0 0
8238 0 1 0 8.100318856259985 63.47857856160815 53.416157391189834 1 0 0
8230 0 1 0 5.934405762192047 64.75857290676537 53.18587896363768 1 0 0
8239 0 1 0 7.40676034003435 64.7570910078559 53.30988054553659 1 0 0
8249 0 1 0 9.512550635906477 63.49235965513624 53.54809570236442 1 0 0
8247 0 1 0 9.543941311908426 61.033844041831316 53.43291148664397 1 0 0
8257 0 1 0 11.701731957394577 62.25715619493743 53.47834524080301 1 0 0
8256 0 1 0 12.388481060719114 60.97833273324158 53.61473682575499 1 0 0
8248 0 1 0 10.251802280614486 62.29442069429567 53.573058689351335 1 0 0
8258 0 1 0 12.403897730289247 63.51619586412355 53.41976607651461 1 0 0
7560 0 1 0 3.799105199806772 65.97744511603652 53.092156746675535 1 0 0
7611 0 1 0 3.047385643194496 67.20081239028868 52.93324333441665 1 0 0
7612 0 1 0 3.8342279896271685 68.39904233523762 52.87285640025814 1 0 0
7602 0 1 0 1.6538262855292631 67.21313053607813 52.84818026491336 1 0 0
7541 0 1 0 0.945925322439568 65.94323112930306 52.90050290795394 1 0 0
7603 0 1 0 0.9628538438614697 68.4748724828885 52.855937372959865 1 0 0
7501 0 1 0 5.216235815118979 65.94914953612367 53.152668607625024 1 0 0
8240 0 1 0 8.055163020795256 65.96712207849599 53.296756266187195 1 0 0
8282 0 1 0 5.990705770013249 67.16315645868926 53.189946423217485 1 0 0
8291 0 1 0 7.376092362436375 67.23701948101063 53.210794844531584 1 0 0
7563 0 1 0 5.31216144524697 68.42437761273108 52.97232633111148 1 0 0
8292 0 1 0 8.091674457321004 68.42548165139134 53.16646333826592 1 0 0
8259 0 1 0 11.653377081816439 64.75370806185535 53.5019022261205 1 0 0
8250 0 1 0 10.2569459103821 64.73482595476577 53.444184665367025 1 0 0
8241 0 1 0 9.53972066378123 65.93320806871434 53.447559245526485 1 0 0
8303 0 1 0 9.545086873631872 68.43357028458014 53.313728084298624 1 0 0
8302 0 1 0 10.263600371020242 67.18344432966305 53.40850659164005 1 0 0
8311 0 1 0 11.690073075707918 67.1540326352803 53.547878272553675 1 0 0
8260 0 1 0 12.392339695350868 65.95003216934197 53.4988772958759 1 0 0
8312 0 1 0 12.403191770383051 68.44935712236592 53.48635530629507 1 0 0
7604 0 1 0 1.6709874640840652 69.65042161064878 52.87807533354396 1 0 0
7606 0 1 0 1.6208913545892838 72.11069901028155 52.92293796023682 1 0 0
7615 0 1 0 3.066088097315945 72.14406789879799 53.01764068017458 1 0 0
7614 0 1 0 3.828157552599933 70.89996012224047 52.897467891919916 1 0 0
7613 0 1 0 3.0539100884538013 69.66465906605667 52.830939179733356 1 0 0
7607 0 1 0 0.9877227378691513 73.39396515213414 52.95061785272731 1 0 0
7605 0 1 0 0.966491607083877 70.88803923452329 52.89603594811932 1 0 0
7616 0 1 0 3.799942972836653 73.36338118436059 53.08455454252277 1 0 0
7567 0 1 0 5.238044164466099 73.39553814428649 53.17809626025484 1 0 0
7565 0 1 0 5.230441305350733 70.88543047422598 53.04765641010705 1 0 0
8296 0 1 0 8.102110375929177 73.3876850283565 53.096332080589065 1 0 0
8284 0 1 0 5.9781847238473205 69.61917998995716 53.00581608385224 1 0 0
8293 0 1 0 7.386393336839298 69.62704141917293 53.16791977030052 1 0 0
8294 0 1 0 8.11821743408048 70.87944246382965 53.29237104109053 1 0 0
8286 0 1 0 5.996450544968815 72.1139223965693 53.0323104048943 1 0 0
8295 0 1 0 7.429903280826137 72.17430308180805 53.144120622779965 1 0 0
8307 0 1 0 9.52227814565039 73.45260945390649 53.213337504996424 1 0 0
8304 0 1 0 10.260389822136544 69.67464304247811 53.39373129309608 1 0 0
8313 0 1 0 11.68062485180993 69.66327666500702 53.48649340777157 1 0 0
8306 0 1 0 10.200328168295028 72.22485158240119 53.330521966790464 1 0 0
8305 0 1 0 9.538178733752648 70.89914610751161 53.31181464390966 1 0 0
8314 0 1 0 12.35632973335134 70.97273328986272 53.4679534305366 1 0 0
8316 0 1 0 12.362259715325324 73.45249254648907 53.31283712952486 1 0 0
8315 0 1 0 11.650934219978195 72.23986183064223 53.39135382130185 1 0 0
7610 0 1 0 1.5943909716573568 77.13488586648944 53.15411008886453 1 0 0
7608 0 1 0 1.6682381205135484 74.68179437928374 53.00794791505057 1 0 0
7617 0 1 0 3.102593985633441 74.68585137136824 53.174299766694006 1 0 0
7618 0 1 0 3.7697051215864397 75.95614419115826 53.29543102515946 1 0 0
7619 0 1 0 3.052807997469713 77.1219499893322 53.23087846642132 1 0 0
7609 0 1 0 0.944836231396311 75.87871230593888 53.09973717359175 1 0 0
7601 0 1 0 0.9273714739195699 78.38059462198213 53.137703180081616 1 0 0
7620 0 1 0 3.7518792892593815 78.42191386962376 53.473007631252145 1 0 0
7569 0 1 0 5.235378038394084 75.9369055722168 53.37224209015712 1 0 0
8288 0 1 0 5.943349421951148 74.68882849211164 53.268615914468135 1 0 0
8297 0 1 0 7.366841072377213 74.63643810697064 53.121308912763745 1 0 0
8299 0 1 0 7.369982087004598 77.19102722663484 53.289754312534114 1 0 0
8298 0 1 0 8.077972448050756 75.92197738795335 53.24172959014663 1 0 0
8290 0 1 0 5.921951553977933 77.18458304098914 53.45876847074578 1 0 0
7561 0 1 0 5.21721283332478 78.37564292102418 53.53871103626532 1 0 0
8300 0 1 0 8.105851477006482 78.42002913057797 53.37319553604118 1 0 0
8308 0 1 0 10.213164428296555 74.68351660230641 53.32831200143808 1 0 0
8309 0 1 0 9.478240082181333 75.97439996710462 53.23002573069476 1 0 0
8310 0 1 0 10.235478149200048 77.16519485539894 53.367135652804926 1 0 0
8319 0 1 0 11.663309738934574 77.16106955773786 53.40533735305344 1 0 0
8318 0 1 0 12.400525336105343 75.9165371540663 53.313476026093944 1 0 0
8317 0 1 0 11.662744884519716 74.6906182302469 53.310911241511654 1 0 0
8301 0 1 0 9.512162925734572 78.42603139004298 53.40882252626528 1 0 0
8320 0 1 0 12.377561199665303 78.38430275668628 53.43943676232235 1 0 0
7663 0 1 0 0.8988685806383587 80.847667216918 53.26980787097687 1 0 0
7664 0 1 0 1.6875571786180747 82.09979692899952 53.337244539712565 1 0 0
7662 0 1 0 1.6421125525556604 79.63636437347147 53.29321672041148 1 0 0
7671 0 1 0 3.078131958659627 79.67514020763417 53.444470503585 1 0 0
7672 0 1 0 3.827248256108521 80.87125898160188 53.50006112790965 1 0 0
7673 0 1 0 3.0658696988196192 82.12498115737242 53.458241429249526 1 0 0
7623 0 1 0 5.24557204464753 80.83386261221021 53.66401301845045 1 0 0
8351 0 1 0 7.405285049949071 79.66425815074452 53.561639542782885 1 0 0
8344 0 1 0 5.988671610525495 82.05448218856006 53.659401995675125 1 0 0
8342 0 1 0 5.96473431625454 79.63103296894658 53.557511319983924 1 0 0
8352 0 1 0 8.116305281998745 80.87514590745941 53.57938645097008 1 0 0
8353 0 1 0 7.378382266873561 82.11293534886879 53.64880596580086 1 0 0
8354 0 1 0 8.130212848393432 83.32800885438495 53.537449942135154 1 0 0
7625 0 1 0 5.287903946588773 83.29629678830531 53.61538622739359 1 0 0
8363 0 1 0 9.58669550971268 80.8440639001945 53.46446698970029 1 0 0
8364 0 1 0 10.32921538187016 82.07527234319294 53.48500274140257 1 0 0
8362 0 1 0 10.24961686507664 79.63864844608607 53.45734832057326 1 0 0
8373 0 1 0 11.69362030614625 82.08343840480562 53.59032761133427 1 0 0
8372 0 1 0 12.454261984867262 80.84069394356067 53.524016575963465 1 0 0
8371 0 1 0 11.645110914056698 79.63374287896427 53.482617928913214 1 0 0
8365 0 1 0 9.578063548437342 83.34394126408449 53.4913595361838 1 0 0
7674 0 1 0 3.815837311882639 83.35574411982884 53.60771185008915 1 0 0
7665 0 1 0 0.9822070209540191 83.33940098844097 53.3446333447443 1 0 0
7667 0 1 0 0.9421205020460782 85.74972448296624 53.350463060456185 1 0 0
7676 0 1 0 3.892881745612953 85.83291437550768 53.6998635921047 1 0 0
7675 0 1 0 3.090616393634257 84.58487540832428 53.629962533360114 1 0 0
7677 0 1 0 3.1337218100644693 87.03205896444392 53.663071491178066 1 0 0
7666 0 1 0 1.6421303170711894 84.54655112883728 53.48933000310488 1 0 0
7668 0 1 0 1.695733293374791 87.00459777112958 53.55153938326045 1 0 0
7627 0 1 0 5.292370499797833 85.81974966905501 53.65729318004732 1 0 0