LAMMPS data file via write_data, version 4 Feb 2025, timestep = 1000000, units = metal

192 atoms
2 atom types

0 12.5 xlo xhi
0 12.5 ylo yhi
0 12.5 zlo zhi

Masses

1 1.007999999740698
2 15.99899999588435

Atoms # full

143 0 1 0 0.8559579510671353 1.3961433006218456 2.5494199351944227 -6 11 -19
15 0 2 0 0.32774511442263554 0.6688079772331516 2.8416822344572905 -6 11 -19
173 0 1 0 1.2851525822008827 0.5565015006963131 4.078495097862285 -7 11 -18
144 0 1 0 1.9230861749958292 2.2045633468864763 5.382588677783128 -10 13 -18
45 0 2 0 2.025752067265721 0.5632594614013461 4.73747621014114 -7 11 -18
16 0 2 0 2.009933201204302 3.0436693437129625 5.896296722773905 -10 13 -18
71 0 1 0 1.3010993773762622 0.7797045462353872 7.924419581692452 -8 9 -20
7 0 2 0 1.7655072015500402 1.4848465214116735 8.469801123934074 -8 9 -20
135 0 1 0 1.9813562058501062 2.2419759289031953 7.888419489970326 -8 9 -20
107 0 1 0 0.3499628188485317 1.263537700478049 10.23023171054547 -4 11 -21
167 0 1 0 1.9834681637332308 1.623414046375236 11.226945670274487 -6 9 -17
39 0 2 0 2.217002641853108 2.533322549311753 11.41193237940541 -6 9 -17
103 0 1 0 2.277313611090633 2.7846332132116465 12.413218652458031 -6 9 -17
164 0 1 0 1.0641405270351239 3.8232893856261767 1.6082679586835944 -7 9 -19
100 0 1 0 2.5606984807966704 3.6220085274491582 2.165716671818621 -7 9 -19
36 0 2 0 1.8759145677588618 3.221715776751474 1.6899485176257494 -7 9 -19
80 0 1 0 2.8745608658952833 3.4125982162709074 5.692722266721042 -10 13 -18
158 0 1 0 0.45178359919764105 4.223471187685128 6.118177161845785 -7 11 -16
84 0 1 0 1.5130070246192204 3.946232305995462 10.509968896938892 -10 7 -19
20 0 2 0 1.0782230404946729 4.828167303351353 10.315614301656538 -10 7 -19
187 0 1 0 2.1724091864710076 6.038178412392999 10.184999981778887 -6 9 -18
148 0 1 0 0.47744868574414706 4.880606739047585 11.106714380606542 -10 7 -19
124 0 1 0 2.6878805137191506 8.31761139814742 1.1445534884038564 -5 12 -21
151 0 1 0 0.3001187586191991 7.5071247454534396 0.03312993550089164 -5 6 -15
86 0 1 0 0.7781568267355288 8.226789333748176 2.692401053577823 -7 7 -18
60 0 2 0 2.0383417298109747 8.885822829422068 1.6923842578233217 -5 12 -21
190 0 1 0 1.9679962959843418 6.623540516726752 5.950190002510951 -7 8 -20
152 0 1 0 0.26262525923387803 7.094689272854327 7.623739706442879 -6 8 -17
62 0 2 0 2.3654275780640397 7.415326969416906 6.307553054542833 -7 8 -20
180 0 1 0 1.4172522664762388 9.325315209567602 9.000532517941512 -3 12 -16
52 0 2 0 1.0090360937191634 8.743252642492982 9.797702225767756 -3 12 -16
116 0 1 0 1.7047898252944038 8.04790748843885 9.816409155196318 -3 12 -16
59 0 2 0 2.8494640547629753 6.760509573548051 9.99833177260689 -6 9 -18
81 0 1 0 2.768732223397336 12.236144731058213 0.46982068688401823 -6 8 -21
188 0 1 0 1.51691078401948 9.41996233640144 1.0343501699062225 -5 12 -21
145 0 1 0 3.0020569286837464 11.856377430652392 2.0182182895647265 -6 8 -21
109 0 1 0 2.526946360151392 12.163934648781334 4.684263514895427 -7 10 -18
51 0 2 0 2.9993591631723953 10.425415089249944 5.56305686244114 -6 11 -18
181 0 1 0 0.5924805880367283 11.769225165544071 5.432498159931511 -7 10 -18
179 0 1 0 2.755915505441659 10.486254083158945 6.490049424919753 -6 11 -18
129 0 1 0 1.1864973129616116 11.112399575725961 7.6666564361737795 -7 11 -17
65 0 1 0 2.556288245616837 11.12530186333622 8.570292557174602 -7 11 -17
1 0 2 0 1.9805959803557927 10.648547145272072 7.948966936630141 -7 11 -17
90 0 1 0 2.776924796591376 12.002321417487593 10.769454322711965 -9 10 -20
33 0 2 0 0.6939456477326642 10.065363999420173 12.119110565456454 -8 8 -15
154 0 1 0 1.3914630938950745 11.704610051199534 11.369967604185428 -9 10 -20
97 0 1 0 0.9127980233208808 9.695505917127754 11.188269002350781 -8 8 -15
26 0 2 0 2.1473707829664272 12.332412863087796 11.499834082081836 -9 10 -20
183 0 1 0 4.8732416377748375 0.7913649271362462 1.071818352541129 -8 9 -21
55 0 2 0 5.45371041356623 1.5926258794207604 0.9032497880761402 -8 9 -21
119 0 1 0 4.87927110354494 2.3169100534622067 1.1295696003313749 -8 9 -21
138 0 1 0 6.056315697064427 1.8275219548965849 4.7761500524323965 -7 11 -19
64 0 2 0 5.07708300811653 0.35547901278966776 5.303827355868116 -10 12 -15
128 0 1 0 5.182915591888621 0.5211019529159877 6.261208646598856 -10 12 -15
37 0 2 0 5.41427720560164 0.7003644491681322 8.201666955668399 -7 10 -19
165 0 1 0 5.229035402178212 1.5982468228394753 8.594107924305519 -7 10 -19
63 0 2 0 4.716949575251995 2.977939174395124 9.882013716652015 -5 8 -19
127 0 1 0 4.083265222691831 2.645748419731224 10.515158509647803 -5 8 -19
92 0 1 0 4.320676803962022 5.8514725391343 0.9758430475289867 -6 12 -20
156 0 1 0 5.371891028546411 4.7557695590447775 1.560606554625514 -6 12 -20
28 0 2 0 4.458951196561445 5.103338006101496 1.5975275300192977 -6 12 -20
102 0 1 0 4.122958465277286 5.9132311263899995 3.133675258161259 -6 9 -19
121 0 1 0 5.593690283805968 5.705980118058296 4.981987352026689 -6 11 -19
82 0 1 0 5.323401480552578 5.080818920748395 7.632569430426113 -5 9 -21
18 0 2 0 4.41867768350942 4.759223522693924 7.6543827824116955 -5 9 -21
146 0 1 0 4.340982876501379 4.071799971704061 8.445261827992905 -5 9 -21
191 0 1 0 5.413656115248984 3.4665770802112195 10.356772870923702 -5 8 -19
166 0 1 0 3.367947594850997 6.992680924208954 4.185352504896507 -6 9 -19
38 0 2 0 4.201641460462168 6.637183946703451 3.8138989089761095 -6 9 -19
78 0 1 0 5.479535531273649 8.003447364738296 3.282291411800202 -8 7 -21
149 0 1 0 5.605482969389198 7.765908386757148 6.794162212941894 -4 10 -21
21 0 2 0 4.778058848834798 7.713225275297202 7.396312030247035 -4 10 -21
126 0 1 0 3.24269854083911 7.231558990768005 6.79250138682648 -7 8 -20
123 0 1 0 3.3126865512455552 6.438118495464354 9.152160217985271 -6 9 -18
85 0 1 0 5.257837689097691 7.896296271608859 8.243559330655202 -4 10 -21
96 0 1 0 3.792380278391825 7.240250610997563 11.430438960935616 -8 8 -19
32 0 2 0 4.062680852202349 7.395175592902193 12.415401271018155 -8 8 -19
160 0 1 0 4.744723927942607 8.11743572231625 12.487810058145074 -8 8 -19
139 0 1 0 4.963140035119575 10.08966615081158 0.9354512414834768 -7 9 -19
17 0 2 0 3.4148024098666925 12.259836986003407 1.2134691778347004 -6 8 -21
11 0 2 0 5.731011834760178 9.573390092521986 0.6470510829068677 -7 9 -19
192 0 1 0 4.565187197687142 12.032511256185366 5.056455662025661 -10 11 -15
115 0 1 0 3.193481553915809 9.485785332204577 5.509229651314687 -6 11 -18
72 0 1 0 4.411803480149891 12.185697917808083 9.08457731330637 -7 10 -19
136 0 1 0 4.829977323479054 10.925653999937152 9.834284623015924 -7 10 -19
8 0 2 0 4.05891720645198 11.548334096937968 9.696155127625266 -7 10 -19
131 0 1 0 8.721411335190238 1.4399650138482132 2.521287471447225 -7 10 -22
3 0 2 0 8.329000719218449 2.2864945745327128 2.7726998480816283 -7 10 -22
74 0 1 0 7.3832994989738925 2.4633783152098743 4.12068489777073 -7 11 -19
67 0 1 0 9.066502516802245 2.773586923251846 3.2232150571388765 -7 10 -22
10 0 2 0 6.587745004629525 2.6316718315247445 4.713050255674998 -7 11 -19
73 0 1 0 8.726671702518205 0.5387573067852588 9.031628144548993 -6 9 -19
9 0 2 0 7.914547594323329 1.0958218773886819 9.139468039105623 -6 9 -19
101 0 1 0 6.35704288184909 0.5963859601954166 8.413593814865761 -7 10 -19
137 0 1 0 7.680404284913908 1.225761935265179 10.083016053859904 -6 9 -19
42 0 2 0 7.845425197692788 1.5616020992952298 11.849335526150726 -7 7 -21
170 0 1 0 6.95649484375322 1.57022401156194 12.3577654961354 -7 7 -21
106 0 1 0 8.505974018254511 2.002655913456795 12.379580438990603 -7 7 -21
6 0 2 0 7.219142990775029 4.464819634869924 1.3727160435350223 -11 7 -17
134 0 1 0 7.837011219260002 5.006890954937918 1.8710338895929577 -11 7 -17
70 0 1 0 7.325692716539869 3.553721249881902 1.7795627429428356 -11 7 -17
182 0 1 0 7.551981218098498 5.53548194580115 4.321727389018314 -5 7 -16
54 0 2 0 8.17161585652655 5.81716315817237 3.4700158966726087 -5 7 -16
57 0 2 0 6.461025402959076 5.382927069785773 5.2922065601896024 -6 11 -19
185 0 1 0 6.533306811318169 4.403437082344096 5.198659888957661 -6 11 -19
68 0 1 0 8.313350535290867 3.1330721123598035 6.196586636206427 -6 12 -19
89 0 1 0 8.921470735906281 5.595520438354182 7.228980712247286 -6 10 -18
4 0 2 0 8.62454922284896 3.6560742466580685 6.9837500727254165 -6 12 -19
132 0 1 0 8.364157638897753 3.151926300202976 7.774379329433769 -6 12 -19
77 0 1 0 6.620655428863921 5.584196538372239 10.913588998710676 -10 10 -20
163 0 1 0 8.693912380004543 4.671337673915322 10.751551196442227 -8 7 -18
141 0 1 0 7.005424616812633 4.446625354452665 11.890455648851578 -10 10 -20
13 0 2 0 6.715622310354946 4.574863836591362 10.980422858820708 -10 10 -20
142 0 1 0 6.366771110266694 8.885054527664852 2.4775758011935785 -8 7 -21
118 0 1 0 7.753786329802543 6.673883664938262 3.235527757895241 -5 7 -16
31 0 2 0 9.318262513338084 8.916502264080187 4.098802491440892 -7 8 -14
14 0 2 0 6.257160793198509 8.536718914840975 3.4222355018528012 -8 7 -21
125 0 1 0 7.113979782979926 8.376625756810004 5.154411821502383 -6 8 -22
61 0 2 0 7.036005294570908 8.159003580190522 6.10196713072704 -6 8 -22
189 0 1 0 7.46398973235002 7.321337012762896 6.207787473802288 -6 8 -22
25 0 2 0 8.822060489409443 6.512138359057389 7.487849128779596 -6 10 -18
111 0 1 0 7.854110460355735 9.094660452541579 7.314885222290068 -7 10 -16
69 0 1 0 7.283704549773558 6.8292901817140494 8.938154533758228 -7 8 -15
5 0 2 0 6.620612185799992 6.962962294230741 9.659860486014676 -7 8 -15
133 0 1 0 6.674416636696731 7.894590774257688 9.960767839369103 -7 8 -15
75 0 1 0 6.36777153831533 10.266035982144897 0.4745465059655339 -7 9 -19
98 0 1 0 9.358142265438389 12.010853537152789 1.1842118755229816 -6 8 -16
49 0 2 0 7.900050969302594 11.539124834299471 5.144647403326062 -6 10 -18
177 0 1 0 6.9666369689274115 11.833291452937914 5.188967740982198 -6 10 -18
113 0 1 0 7.949507820637726 10.621868624916768 4.819177002108278 -6 10 -18
110 0 1 0 9.305616453910613 12.489576009180801 5.69345665903276 -6 7 -17
175 0 1 0 8.663187484653031 10.449952803263667 7.340966283872895 -7 10 -16
47 0 2 0 8.343432909488923 9.72376982858386 7.8895928783265505 -7 10 -16
112 0 1 0 6.80011447439762 10.237017914714682 9.011681984758182 -5 4 -17
176 0 1 0 6.806400627250122 10.546406129301834 10.483691479139036 -5 4 -17
114 0 1 0 9.179939691776971 9.6014918691724 9.455303107623072 -7 8 -22
48 0 2 0 6.257655304101415 10.051130400673205 9.787681304523575 -5 4 -17
56 0 2 0 7.660364852993608 11.397548416047025 11.598983868729517 -4 8 -17
184 0 1 0 7.697376294870403 12.368198163442916 11.581519163767753 -4 8 -17
120 0 1 0 8.518087120610694 11.171443781265745 11.1469543238553 -4 8 -17
2 0 2 0 10.797771514583225 2.5386908640327213 0.15936500719639435 -8 10 -20
162 0 1 0 10.11196786546106 0.8350501456348517 0.8974047892764722 -6 9 -16
34 0 2 0 9.748024937369234 0.28818377036167364 1.5533624852777537 -6 9 -16
79 0 1 0 11.972788496419508 1.0021596612574295 3.0916051117073526 -7 11 -19
58 0 2 0 10.968199231949047 2.383222194422482 4.04782653855537 -4 6 -17
186 0 1 0 11.449516490128993 3.083812112912918 4.50778719283515 -4 6 -17
122 0 1 0 10.667545320546658 1.7288603733428745 4.78793059811527 -4 6 -17
46 0 2 0 10.067856080480361 0.5397354234641654 5.990024906143205 -6 8 -17
174 0 1 0 10.938081959606732 0.14582019886302966 5.843475078686828 -6 8 -17
108 0 1 0 10.909644949930232 0.2803772318026296 9.219961067401522 -7 7 -21
43 0 2 0 11.929725934215458 1.1172271568488783 10.402537945355656 -5 11 -21
171 0 1 0 11.934960092452524 1.2896563068859874 11.356595262738301 -5 11 -21
104 0 1 0 12.19106450194768 5.625051774482363 1.2795632769262362 -9 10 -19
66 0 1 0 11.175430074194976 3.1691943995478304 0.8139972863512824 -8 10 -20
168 0 1 0 11.414615680673432 4.764114994076927 2.467129424345945 -9 10 -19
40 0 2 0 11.998938049911978 4.763464049011761 1.710890399438101 -9 10 -19
27 0 2 0 10.86682094066355 5.958452609807508 3.9441832150608183 -5 7 -17
91 0 1 0 9.825364692404152 5.937823670818087 4.04209033611732 -5 7 -17
155 0 1 0 11.255456566490334 5.5466682204916165 4.80294162143601 -5 7 -17
30 0 2 0 12.093609225709567 4.73479292473748 6.169526404710779 -8 11 -16
94 0 1 0 11.738447850632408 4.458662374536342 7.024344453923525 -8 11 -16
41 0 2 0 11.285445695458955 3.8161961176723236 8.607981141257204 -6 12 -19
105 0 1 0 11.868432058530152 3.374560321742703 9.272004705431478 -6 12 -19
169 0 1 0 10.567465737272187 3.2216694585615198 8.404220944268113 -6 12 -19
99 0 1 0 10.009088812343338 4.877041992620513 10.16683616145136 -8 7 -18
130 0 1 0 10.46298231564995 3.1802368655276525 12.036473582563303 -8 10 -21
35 0 2 0 9.526518011551959 5.019273802198926 10.977923550962071 -8 7 -18
93 0 1 0 10.620611980754681 9.029789373704062 0.6652369206752359 -7 12 -18
23 0 2 0 12.29316340407624 6.66065423755412 0.0037388259540360735 -6 6 -15
157 0 1 0 11.378434337299002 9.357391206897647 1.8607847207873962 -7 12 -18
150 0 1 0 11.99847723067863 7.466194777815925 3.2876391551591144 -8 7 -18
22 0 2 0 12.33949939443607 8.336336843158419 3.1420378554110426 -8 7 -18
159 0 1 0 9.484793058950965 8.357667410379904 3.310851185632328 -7 8 -14
76 0 1 0 12.091745567148834 8.965899237217954 4.71955482018271 -6 10 -17
95 0 1 0 9.870027317411514 8.468250977218702 4.773461166200728 -7 8 -14
12 0 2 0 11.681139850450666 9.188582970940251 5.625264178799666 -6 10 -17
153 0 1 0 9.707431482567642 6.9197745314395 7.76065882662116 -6 10 -18
140 0 1 0 12.128344736141102 8.718100551456512 6.366438157778659 -6 10 -17
24 0 2 0 11.986950075454713 7.671295007607182 7.770985388148794 -7 8 -17
88 0 1 0 12.285726995417393 8.020918122214498 8.627817244126323 -7 8 -17
19 0 2 0 9.65872000336698 7.548089674900858 12.011232030217998 -9 8 -18
87 0 1 0 11.302243629043696 6.915109133370117 12.498192488869076 -6 6 -16
147 0 1 0 9.73696785480911 8.114249777141303 11.195574446684391 -9 8 -18
83 0 1 0 9.46887038610172 6.659443492463658 11.6451597368774 -9 8 -18
29 0 2 0 10.904682940474567 9.847689794651082 1.121345486723941 -7 12 -18
117 0 1 0 12.019800873977735 10.775152722339982 5.98507362125413 -8 10 -18
53 0 2 0 12.454534612628597 11.669090850609827 6.193441281973759 -8 10 -18
44 0 2 0 10.210128958174662 12.279620442327989 8.834615133233967 -7 6 -21
172 0 1 0 10.440069824736996 12.170121890934075 7.877689146837612 -7 6 -21
178 0 1 0 10.251256959046163 10.554204259993584 10.108755379556026 -7 8 -22
50 0 2 0 9.607918080340438 9.82591710370912 10.373605652070808 -7 8 -22
161 0 1 0 12.282516907807334 10.21198600166349 12.412546060205548 -9 8 -15

Velocities

143 3.3397542142554637 6.744102943083652 1.620083033776214
15 6.317449919083307 4.4611310941345215 2.3207734034106537
173 -3.897907942331491 -0.3394080085655195 7.581867364900822
144 6.855445648422916 -6.535018747656255 6.1022908396736195
45 2.710660843423056 -1.6769045688208937 -2.816300059322829
16 -1.0409790785720867 2.0503574749948656 -3.132993385635879
71 -8.643315044671638 10.451792822927386 -2.150419660267489
7 -2.6156957244379195 4.119792905942788 -0.3079890123966524
135 26.618634860480984 10.007956892138452 -6.95821608282913
107 0.05367736171892436 -2.108294802574156 9.850610350526445
167 -8.011093821119434 -13.427474060509255 1.0489825220796338
39 3.6934520941924673 0.7066370409284985 -0.5987693957259778
103 -9.53109784456439 19.65865327786924 17.730963724164994
164 -10.77634594089207 11.693714538586734 -1.0716757935967824
100 21.10117768745434 -0.051913899988791555 -0.47936274497184794
36 0.7246433453267067 1.6268701230162887 -3.5770640864442416
80 -33.506114402487555 -19.615825094023883 -8.442287361216804
158 9.933774136943601 -18.545507309693175 -42.06485525798316
84 -14.844335321336299 8.698002536352712 -15.391299637432178
20 -0.7896295151778172 -0.3653597838600892 1.4827036803941134
187 -29.765565310413844 17.886792048517844 -4.036799358973062
148 5.371370180241978 16.892148910012946 -0.6742996087638489
124 3.448000037805372 -3.430364286326507 -7.289713284428142
151 23.606745728625622 9.281539777169675 1.5144006579925338
86 7.767913281685503 -7.436356080948798 24.06641945499331
60 -4.143758251087791 2.0977188996735547 -1.953551754735679
190 -15.41200397756998 0.3715165988366028 7.772630245292595
152 15.550794486499107 12.010960806092113 10.135846838475215
62 1.246139726969437 0.8237023443001731 5.48608526882916
180 0.996010410525872 4.71342332978885 -0.1376276541606104
52 2.1826842543342515 -1.020331069784039 5.002585810822717
116 -2.7851452971707498 13.729999145412199 -5.073501047951926
59 1.2544469980347395 4.411747205938921 3.4183748557865363
81 -7.580186794294054 17.481522755377213 17.33784629562307
188 -14.883738097600087 27.362208132443055 4.505014537188653
145 -12.034671331396368 -15.591401757896964 -16.668956177949234
109 14.50720901378754 10.837133507526914 1.7743707859382645
51 5.537875998660109 5.863949109965974 -8.169184605166336
181 -12.64385104756741 -19.38905203122582 -0.3983637121461772
179 -6.184443163172094 -13.92933458300056 -28.460817634666206
129 -10.112402877375276 20.581997398809282 -9.784784733659887
65 -15.270771971119597 -2.894694614765649 1.706505647853876
1 3.578539564411132 8.111063531326113 2.142242212666393
90 4.302203109090114 32.17857010919771 -16.772331175583805
33 -2.4118764915934148 -7.878054697345499 4.097203166427275
154 10.45725917192376 19.332392570461053 -9.36585442835407
97 11.12141558365889 8.123502475106513 1.4762132691476588
26 -0.7706161044678289 1.3559125713248046 -1.7875797577439247
183 -22.41898477588604 -10.682635805329658 -1.394699470847012
55 -1.9443838693282371 -2.984748037204763 2.0814893890596573
119 8.51889463976999 24.743954437677473 -6.21486560666575
138 22.868852884458704 7.115512164973872 -2.3288670842971166
64 4.082606719320437 4.583324173314953 -5.2633302393640236
128 -10.329070714727242 5.478527136850667 6.4475354626341606
37 1.6256460742770704 8.457413924093482 4.837881706349287
165 26.45943876814731 7.010958450860237 8.26944808696349
63 0.8413989986558936 -0.651004478235311 1.0728182998471378
127 5.59189957131509 -10.690018349439708 11.841323649509654
92 -2.910039176924471 -6.113907319736967 4.122210107431836
156 -8.721174565698686 13.867500380597006 2.7079268267209704
28 0.6265169049098295 -3.0696352633672874 -2.158435899442134
102 10.073165116354565 -15.409534460246194 -1.3595289728923068
121 -1.6049419232693096 -4.1611332552926195 -17.105186330254085
82 -1.8722215499942385 11.678715771579169 28.085343202145037
18 3.286023401090598 3.728682607448667 -8.830161711704134
146 6.298046702188407 3.6389726446678865 10.678497139628629
191 -15.405559534720135 4.763879890670394 8.623324275979321
166 -23.541399733680542 11.941226109013789 16.95595083724448
38 2.373556352187548 -2.267282535973442 0.5502892690518307
78 14.052031752665947 22.475927252764407 1.102217576823829
149 -13.642708546899492 -0.795270287714463 35.32844147844481
21 0.9962173992910699 -0.7795246112110901 1.233755377918716
126 -12.703861197886557 14.854706507601675 1.494726057419601
123 -6.815297184418244 -6.919130098755094 -2.207756935122024
85 3.391258798613638 11.040948041496359 -16.664099474670053
96 -27.19065343054352 -1.441796531428975 1.6786557264982893
32 -1.7553902119373166 0.1080400219239141 6.461783521440218
160 -6.572065315731661 7.757709863684975 -18.694019662165104
139 -2.3999991003743393 -3.895427875640741 -8.739394534978887
17 -4.031645037162696 -3.8954412749447105 3.4416120840630495
11 0.6130747583906847 -3.5443572442675926 2.74451975646697
192 -6.691417289664455 -21.237908519565426 -26.301712407230394
115 -5.602165418696896 3.590031081919746 -21.30807233964719
72 -9.094229174694506 -28.09349607787163 16.40664544563362
136 12.806908565986829 18.47926297082677 3.664987392968128
8 8.134110530678582 -0.2568580585819164 -4.1188198272630485
131 10.001131752570805 -2.6903076290312704 4.375548628379409
3 -0.04328327417490992 0.6619791559993632 1.8035858437797292
74 9.30854951628261 21.03279561254067 -14.431420009137224
67 -17.30080301895579 18.60767622305923 13.505051711830774
10 8.31014330806975 -2.7607460325795756 -0.8822595241117391
73 -1.8621140054634135 16.11926462146213 35.13297310132102
9 -5.152085248523257 -0.9000525028280986 2.338077715777166
101 5.60969090076433 -18.51591813668224 -7.072836337110865
137 8.892879308690164 -5.92300299040837 -5.155408062836328
42 5.283363162295246 -6.142050030503503 0.030880850845887507
170 6.886410403443801 11.239206804521714 -7.1560363641742075
106 10.787552582225745 7.535353194914178 -10.570563799090024
6 -2.4684846303216776 -3.18558322707219 5.878083691755804
134 -3.8835009574759596 3.8753045483130673 -7.6910460889425725
70 -38.224123985349806 -19.520931277466413 56.32074998611208
182 15.16683123663677 -10.74655847209919 -1.2221459696175718
54 -1.1748175620183365 2.111415248220922 -1.7058107438468915
57 2.825268675868032 -0.9397107548583938 2.680387050139726
185 1.8060700256195705 13.883252867661712 -1.030028018422636
68 1.4425824823474296 -0.23370108521666935 -6.001474725346927
89 24.031462919854537 -43.06323157531806 -14.161923966891596
4 4.530160411921898 0.2441047647344886 -3.1079945853551587
132 7.5605304547418335 -24.16728192321719 -8.21457889020625
77 10.790489141261707 2.9083324588715533 18.653630776816893
163 -30.308540240219795 -6.432509561799754 -24.11233465313748
141 -8.817700068771295 3.858243582532332 -0.25241192978904176
13 7.600011216588171 0.0012537595499984703 1.2697092908709517
142 7.34512058923985 24.33034933157087 2.084218734887901
118 -30.593670786797283 8.872265272811962 2.5351438116030662
31 1.959128863613207 0.8032900197146066 -1.8504202627293818
14 -4.341388927233195 1.8031766193875034 5.318882838826789
125 20.982560826757613 1.911837327911964 17.30843656839565
61 -2.719747276823757 4.822740880974392 1.7512436431734755
189 -15.118121583032197 -18.557473267860054 -6.006915407678507
25 4.773635760088219 4.923544258401445 2.4230849698667694
111 -26.268459330802234 -4.283829965291889 28.259057859876272
69 -8.08272770566245 -47.5010665847173 -21.846603915673825
5 -3.247455669098505 0.7200957635139755 -2.4447080512451187
133 20.66861908097837 -13.920880784344131 -0.14225554144295058
75 -8.979283225107562 10.496725018656008 5.140391120045624
98 -13.915738161328845 5.99009761359935 -23.06076999384338
49 1.5165365386521874 -4.028965290007141 -2.8494522878626465
177 -11.053947177182684 -25.862017031751655 11.552750045400725
113 0.3021581090149625 6.104058532718697 10.892896159605707
110 -16.9832522104757 6.266485485505133 4.739168426779837
175 -13.31215492415588 0.9702073283578382 13.655626511358868
47 -3.7388212836279098 -3.2263962698568855 -3.471959407362887
112 -0.9106115051680933 23.37684092314796 16.015668024286988
176 -17.243894742458604 -0.17414600691179968 -29.27071900986483
114 20.034363793461374 -9.181415234378436 -18.64629288426094
48 0.6468982657302443 4.42844667478372 -7.846971015792105
56 0.41073915695201996 -4.463773915683512 4.126444933193926
184 -32.69218946829879 9.82014515461123 13.222468936765763
120 -11.818722644698605 -11.905946095260596 -2.937370849074698
2 -4.175789653274105 0.7734892994334569 -6.282579869108266
162 -37.10552717665056 20.610164734761163 3.6497379295883685
34 2.3503763838450014 -0.8106386466369206 -0.5028267334863027
79 -3.195369033812888 -36.99268360684903 6.8320046645688155
58 -2.2949389890664107 -1.5683930286778447 -5.627907837770933
186 -7.147297603422158 7.333079875776068 -12.511240017641148
122 -4.238062017736879 -1.5754279296676448 -8.394555496537542
46 -4.097775138872058 -1.1521693738302399 -1.8497324359902152
174 -1.0129138200086922 16.402387929061984 12.914217540730023
108 20.376481148738637 -14.686847299520666 0.07447214606656975
43 4.718018124339209 -1.002069374273676 -4.198669089911181
171 -20.40730780249644 -43.21914241948758 -21.348090533598665
104 2.144370770059452 18.146352661583833 -8.915969550158817
66 -13.40934590956436 -0.6035425019681483 9.436118238968012
168 -35.61421891862917 -30.19697507547593 -0.686917042222717
40 1.6280583753875517 1.283679791581488 0.6180336044907985
27 4.078871853067837 -8.42815587050754 -1.7368158232905417
91 -12.036804757313318 2.2016535848571586 16.928264642805217
155 -5.80713559225512 -9.499300800463196 14.98091914283118
30 -10.195107362238833 -3.7972754685578307 7.309162197287198
94 2.77252845927476 21.687632605337424 20.441298534082257
41 2.5872294818605024 6.089131009263531 -3.1160052893620547
105 -24.252424069872443 10.441028455856475 13.996892189583544
169 11.647056082022594 -4.165275515438609 11.093062989590875
99 -4.420472937451588 -27.88753175913242 20.397845851589736
130 -1.7352989299092163 -28.388647801923668 7.819289233427002
35 -6.57587863856963 -4.806662030621907 -8.596104332187641
93 -19.932217931484534 -16.478771621905082 3.2085754749422746
23 -5.179939712354976 7.905435319210474 4.726902764391255
157 28.195249138685686 -19.04877870155472 6.213129919626202
150 17.393890124186314 4.134537403221227 13.123215161039091
22 -0.7997124507100732 0.7934148363528747 -1.9952355820827399
159 25.204107715364458 -18.0187795640974 8.55445078322689
76 15.59380570874106 -4.261033781952326 21.091417131022904
95 10.90571223402148 -28.3716376266471 -12.52014723659737
12 -1.7044804219786465 -2.751088722868545 -1.0880985530228973
153 -1.7516979414109874 -6.213858004842823 9.372023068116913
140 -6.0050603431364005 3.523082418647487 17.693420354354213
24 -1.778960036374446 -4.764119886222782 -4.58021524201527
88 -4.327802413869039 1.190184620787939 6.53401954389487
19 2.3048293439562615 0.5425991081289944 0.7099899190452492
87 16.005958708399074 -23.76829193445721 12.262652450616564
147 -13.732960178275329 -17.808588476577214 -4.422201577814491
83 -1.085022008161086 10.311165389680086 9.692050780626095
29 -1.9972069749405346 1.5924986932899594 -1.2391589264366292
117 -7.556947171432282 13.972953774086742 43.02157172749097
53 -3.7866840886045616 -1.9887171799608756 -2.557283234502792
44 -2.733894465002569 1.4245461788625151 -1.807373966769519
172 -6.11052563253251 7.941793342541488 -10.443622049098906
178 -16.5798404898052 -21.201616049156698 13.884947705106764
50 -1.1910075661687756 2.743015012407376 -6.413077310485064
161 -3.983285136456218 8.424771461228197 18.51082934912284
