LAMMPS (4 Feb 2025)
OMP_NUM_THREADS environment is not set. Defaulting to 1 thread. (src/comm.cpp:99)
  using 1 OpenMP thread(s) per MPI task
# LAMMPS script for running NVT simulation

units       metal                   # Energies in eV, distances in A
dimension   3
boundary    p p p
atom_style  full

bond_style   zero
angle_style  zero
pair_style   lj/cut/coul/long 9.0
kspace_style pppm 1.0e-5
read_data    ../equi_final.lammps-data
Reading data file ...
  orthogonal box = (0 0 0) to (154.008 148.19427 151.07317)
  8 by 4 by 8 MPI processor grid
  reading atoms ...
  11640 atoms
  reading velocities ...
  11640 velocities
  scanning bonds ...
  2 = max bonds/atom
  scanning angles ...
  1 = max angles/atom
  orthogonal box = (0 0 0) to (154.008 148.19427 151.07317)
  8 by 4 by 8 MPI processor grid
  reading bonds ...
  2000 bonds
  reading angles ...
  1000 angles
Finding 1-2 1-3 1-4 neighbors ...
  special bond factors lj:    0        0        0       
  special bond factors coul:  0        0        0       
     2 = max # of 1-2 neighbors
     1 = max # of 1-3 neighbors
     1 = max # of 1-4 neighbors
     2 = max # of special neighbors
  special bonds CPU = 2.213 seconds
  read_data CPU = 2.366 seconds

pair_coeff   1 1 0.0      1.0        # Ignore C-C
pair_coeff   1 2 0.0      1.0        # Ignore C-H
pair_coeff   1 3 0.004551 3.367      # LJ for C-O (0.4391 kJ/mol = 0.004551 eV)
pair_coeff   2 2 0.0      1.0        # SPC/E H-H
pair_coeff   2 3 0.0      1.0        # SPC/E H-O
pair_coeff   3 3 0.006735 3.166      # SPC/E O-O (0.1553 kcal/mol = 0.006735 eV)

set type 2 charge 0.4238            # SPC/E H
Setting atom values ...
  2000 settings made for charge
set type 3 charge -0.8476           # SPC/E O
Setting atom values ...
  1000 settings made for charge

variable t equal step

group graphene type 1
8640 atoms in group graphene
group H2O type 2 3
3000 atoms in group H2O

######### NVT production for 10 ns #############

thermo 10000
dump DUMP0 all atom 100 nvt_prod_0.lammpstrj
timestep 0.001
fix rigid_bonds H2O shake 0.0001 10 10000 b 1 a 1
Finding SHAKE clusters ...
       0 = # of size 2 clusters
       0 = # of size 3 clusters
       0 = # of size 4 clusters
    1000 = # of frozen angles
  find clusters CPU = 0.067 seconds
fix NVT1 H2O nvt temp 300 300 $(100.0*dt)
fix NVT1 H2O nvt temp 300 300 0.10000000000000000555
run 2000000
PPPM initialization ...
  using 12-bit tables for long-range coulomb (src/kspace.cpp:342)
  G vector (1/distance) = 0.27466065
  grid = 72 72 72
  stencil order = 5
  estimated absolute RMS force accuracy = 0.00016054877
  estimated relative force accuracy = 1.1149495e-05
  using double precision KISS FFT
  3d grid and FFT values/proc = 4508 1800
Generated 0 of 3 mixed pair_coeff terms from geometric mixing rule
Neighbor list info ...
  update: every = 1 steps, delay = 0 steps, check = yes
  max neighbors/atom: 2000, page size: 100000
  master list distance cutoff = 11
  ghost atom cutoff = 11
  binsize = 5.5, bins = 29 27 28
  1 neighbor lists, perpetual/occasional/extra = 1 0 0
  (1) pair lj/cut/coul/long, perpetual
      attributes: half, newton on
      pair build: half/bin/newton
      stencil: half/bin/3d
      bin: standard
SHAKE stats (type/ave/delta/count) on step 0
Bond:   1   1         1.09577e-06     2000
Angle:  1   109.47    9.17994e-05     1000
Per MPI rank memory allocation (min/avg/max) = 8.047 | 8.118 | 9.245 Mbytes
   Step          Temp          E_pair         E_mol          TotEng         Press     
         0   54.731061     -459.84801      0             -384.58193     -0.18862209   
SHAKE stats (type/ave/delta/count) on step 10000
Bond:   1   1         1.79572e-06     2000
Angle:  1   109.47    0.000143903     1000
     10000   57.413041     -459.80578      0             -380.85144     -2.8237012    
SHAKE stats (type/ave/delta/count) on step 20000
Bond:   1   1         1.57942e-06     2000
Angle:  1   109.47    0.000118535     1000
     20000   56.085195     -460.01663      0             -382.88835      5.3611183    
SHAKE stats (type/ave/delta/count) on step 30000
Bond:   1   1         1.15734e-06     2000
Angle:  1   109.47    8.80065e-05     1000
     30000   56.743177     -458.81382      0             -380.78068     -1.8071796    
SHAKE stats (type/ave/delta/count) on step 40000
Bond:   1   1         1.35408e-06     2000
Angle:  1   109.47    0.000118263     1000
     40000   57.366457     -459.28504      0             -380.39476     -5.3292243    
SHAKE stats (type/ave/delta/count) on step 50000
Bond:   1   1         1.08092e-06     2000
Angle:  1   109.47    0.000101618     1000
     50000   56.985798     -459.99245      0             -381.62566     -2.6685223    
SHAKE stats (type/ave/delta/count) on step 60000
Bond:   1   1         1.15833e-06     2000
Angle:  1   109.47    8.93765e-05     1000
     60000   57.529236     -459.44571      0             -380.33158     -3.2237434    
SHAKE stats (type/ave/delta/count) on step 70000
Bond:   1   1         1.0279e-06      2000
Angle:  1   109.47    0.000111251     1000
     70000   56.940501     -461.21868      0             -382.91417      2.0739457    
SHAKE stats (type/ave/delta/count) on step 80000
Bond:   1   1         1.44725e-06     2000
Angle:  1   109.47    0.000102605     1000
     80000   56.643385     -463.75517      0             -385.85926     -8.8308286    
SHAKE stats (type/ave/delta/count) on step 90000
Bond:   1   1         1.14747e-06     2000
Angle:  1   109.47    9.6318e-05      1000
     90000   57.922973     -459.76132      0             -380.10572     -3.547946     
SHAKE stats (type/ave/delta/count) on step 100000
Bond:   1   1         1.10792e-06     2000
Angle:  1   109.47    8.98728e-05     1000
    100000   57.390265     -461.87458      0             -382.95156     -2.0474812    
SHAKE stats (type/ave/delta/count) on step 110000
Bond:   1   1         1.29035e-06     2000
Angle:  1   109.47    0.000102026     1000
    110000   55.734345     -456.58791      0             -379.94211     -2.6730001    
SHAKE stats (type/ave/delta/count) on step 120000
Bond:   1   1         1.37923e-06     2000
Angle:  1   109.47    0.000117023     1000
    120000   55.756016     -458.57971      0             -381.90411     -8.0189756    
SHAKE stats (type/ave/delta/count) on step 130000
Bond:   1   1         1.09829e-06     2000
Angle:  1   109.47    0.000103916     1000
    130000   56.342468     -458.79681      0             -381.31472     -3.1060774    
SHAKE stats (type/ave/delta/count) on step 140000
Bond:   1   1         1.15229e-06     2000
Angle:  1   109.47    8.91606e-05     1000
    140000   57.190681     -460.21039      0             -381.56184     -1.5895442    
SHAKE stats (type/ave/delta/count) on step 150000
Bond:   1   1         1.19369e-06     2000
Angle:  1   109.47    9.01222e-05     1000
    150000   56.764715     -459.69684      0             -381.63408     -4.9840999    
SHAKE stats (type/ave/delta/count) on step 160000
Bond:   1   1         1.14691e-06     2000
Angle:  1   109.47    9.47385e-05     1000
    160000   56.226669     -454.77038      0             -377.44754     -9.2613879    
SHAKE stats (type/ave/delta/count) on step 170000
Bond:   1   1         1.21584e-06     2000
Angle:  1   109.47    0.000119884     1000
    170000   56.99257      -460.84224      0             -382.46613     -0.47080642   
SHAKE stats (type/ave/delta/count) on step 180000
Bond:   1   1         1.16432e-06     2000
Angle:  1   109.47    9.45795e-05     1000
    180000   57.498144     -458.39151      0             -379.32014     -6.3475015    
SHAKE stats (type/ave/delta/count) on step 190000
Bond:   1   1         1.19443e-06     2000
Angle:  1   109.47    8.62385e-05     1000
    190000   55.905557     -459.21749      0             -382.33624      0.35206412   
SHAKE stats (type/ave/delta/count) on step 200000
Bond:   1   1         1.17152e-06     2000
Angle:  1   109.47    9.61286e-05     1000
    200000   56.277777     -462.01925      0             -384.62613     -1.6921398    
SHAKE stats (type/ave/delta/count) on step 210000
Bond:   1   1         1.3206e-06      2000
Angle:  1   109.47    9.28908e-05     1000
    210000   55.290645     -457.64395      0             -381.60833      0.55916063   
SHAKE stats (type/ave/delta/count) on step 220000
Bond:   1   1         1.09983e-06     2000
Angle:  1   109.47    0.000104994     1000
    220000   56.40594      -462.01101      0             -384.44164      1.6829384    
SHAKE stats (type/ave/delta/count) on step 230000
Bond:   1   1         1.27781e-06     2000
Angle:  1   109.47    0.000102064     1000
    230000   55.273903     -458.26752      0             -382.25492     -13.813928    
SHAKE stats (type/ave/delta/count) on step 240000
Bond:   1   1         1.33813e-06     2000
Angle:  1   109.47    0.000102605     1000
    240000   57.468616     -461.17079      0             -382.14003      0.92947733   
SHAKE stats (type/ave/delta/count) on step 250000
Bond:   1   1         1.25105e-06     2000
Angle:  1   109.47    0.000131852     1000
    250000   55.30576      -459.85736      0             -383.80095     -0.25166344   
SHAKE stats (type/ave/delta/count) on step 260000
Bond:   1   1         1.10585e-06     2000
Angle:  1   109.47    9.2961e-05      1000
    260000   55.581268     -459.94697      0             -383.51169     -8.1672996    
SHAKE stats (type/ave/delta/count) on step 270000
Bond:   1   1         1.18133e-06     2000
Angle:  1   109.47    9.17296e-05     1000
    270000   55.250231     -457.54365      0             -381.5636       1.6126165    
SHAKE stats (type/ave/delta/count) on step 280000
Bond:   1   1         1.01581e-06     2000
Angle:  1   109.47    8.86802e-05     1000
    280000   55.048022     -460.96088      0             -385.25891     -6.5152424    
SHAKE stats (type/ave/delta/count) on step 290000
Bond:   1   1         1.29454e-06     2000
Angle:  1   109.47    9.49058e-05     1000
    290000   57.493913     -458.53106      0             -379.46551     -13.152       
SHAKE stats (type/ave/delta/count) on step 300000
Bond:   1   1         1.29551e-06     2000
Angle:  1   109.47    8.60242e-05     1000
    300000   58.035556     -457.40169      0             -377.59127     -6.6340576    
SHAKE stats (type/ave/delta/count) on step 310000
Bond:   1   1         9.6959e-07      2000
Angle:  1   109.47    8.42314e-05     1000
    310000   54.698556     -456.87412      0             -381.65274     -4.461326     
SHAKE stats (type/ave/delta/count) on step 320000
Bond:   1   1         1.2316e-06      2000
Angle:  1   109.47    9.13064e-05     1000
    320000   55.747228     -456.55512      0             -379.89161     -2.6675685    
SHAKE stats (type/ave/delta/count) on step 330000
Bond:   1   1         1.3786e-06      2000
Angle:  1   109.47    0.000111948     1000
    330000   57.089289     -457.73448      0             -379.22537     -4.500205     
SHAKE stats (type/ave/delta/count) on step 340000
Bond:   1   1         1.34586e-06     2000
Angle:  1   109.47    0.000125291     1000
    340000   56.85273      -460.13343      0             -381.94963     -7.0646556    
SHAKE stats (type/ave/delta/count) on step 350000
Bond:   1   1         1.08301e-06     2000
Angle:  1   109.47    9.03554e-05     1000
    350000   55.643796     -458.31153      0             -381.79026      4.2041069    
SHAKE stats (type/ave/delta/count) on step 360000
Bond:   1   1         1.20736e-06     2000
Angle:  1   109.47    0.000105177     1000
    360000   55.973107     -459.48418      0             -382.51004     -8.0986207    
SHAKE stats (type/ave/delta/count) on step 370000
Bond:   1   1         1.05035e-06     2000
Angle:  1   109.47    9.68799e-05     1000
    370000   56.173917     -461.59858      0             -384.34829     -6.1003791    
SHAKE stats (type/ave/delta/count) on step 380000
Bond:   1   1         1.12247e-06     2000
Angle:  1   109.47    8.59053e-05     1000
    380000   56.042339     -457.6387       0             -380.56935     -2.7881951    
SHAKE stats (type/ave/delta/count) on step 390000
Bond:   1   1         1.08381e-06     2000
Angle:  1   109.47    9.01301e-05     1000
    390000   56.827979     -459.07839      0             -380.92862     -4.0337759    
SHAKE stats (type/ave/delta/count) on step 400000
Bond:   1   1         1.03421e-06     2000
Angle:  1   109.47    9.3691e-05      1000
    400000   56.731513     -457.06904      0             -379.05194     -0.5238224    
SHAKE stats (type/ave/delta/count) on step 410000
Bond:   1   1         1.30773e-06     2000
Angle:  1   109.47    9.71642e-05     1000
    410000   55.155864     -459.07339      0             -383.22312     -1.8253988    
SHAKE stats (type/ave/delta/count) on step 420000
Bond:   1   1         1.30374e-06     2000
Angle:  1   109.47    0.000103862     1000
    420000   57.845662     -459.55052      0             -380.00124     -0.19275583   
SHAKE stats (type/ave/delta/count) on step 430000
Bond:   1   1         1.48383e-06     2000
Angle:  1   109.47    0.000122251     1000
    430000   56.704996     -458.64212      0             -380.66149     -5.2155148    
SHAKE stats (type/ave/delta/count) on step 440000
Bond:   1   1         1.2227e-06      2000
Angle:  1   109.47    0.000101842     1000
    440000   56.812063     -459.1228       0             -380.99493     -6.5132739    
SHAKE stats (type/ave/delta/count) on step 450000
Bond:   1   1         1.18183e-06     2000
Angle:  1   109.47    8.36954e-05     1000
    450000   56.706645     -457.41492      0             -379.43201     -7.7166403    
SHAKE stats (type/ave/delta/count) on step 460000
Bond:   1   1         1.28054e-06     2000
Angle:  1   109.47    8.97705e-05     1000
    460000   56.163424     -455.8167       0             -378.58084     -9.6441045    
SHAKE stats (type/ave/delta/count) on step 470000
Bond:   1   1         1.35128e-06     2000
Angle:  1   109.47    0.000103268     1000
    470000   56.965126     -452.75382      0             -374.41545     -2.8912934    
SHAKE stats (type/ave/delta/count) on step 480000
Bond:   1   1         1.82873e-06     2000
Angle:  1   109.47    0.00012483      1000
    480000   55.759009     -457.5313       0             -380.85159     -3.4806225    
SHAKE stats (type/ave/delta/count) on step 490000
Bond:   1   1         1.63433e-06     2000
Angle:  1   109.47    0.000151263     1000
    490000   58.839248     -460.08277      0             -379.16712     -2.5402328    
SHAKE stats (type/ave/delta/count) on step 500000
Bond:   1   1         1.47233e-06     2000
Angle:  1   109.47    0.000111358     1000
    500000   55.46477      -461.96197      0             -385.68689     -5.4108035    
SHAKE stats (type/ave/delta/count) on step 510000
Bond:   1   1         1.30979e-06     2000
Angle:  1   109.47    0.000107387     1000
    510000   55.415247     -460.65731      0             -384.45034     -1.2480338    
SHAKE stats (type/ave/delta/count) on step 520000
Bond:   1   1         1.0121e-06      2000
Angle:  1   109.47    9.25906e-05     1000
    520000   57.11954      -458.00188      0             -379.45116      1.3057188    
SHAKE stats (type/ave/delta/count) on step 530000
Bond:   1   1         1.80922e-06     2000
Angle:  1   109.47    0.000136529     1000
    530000   55.080936     -461.64691      0             -385.89968     -5.6047202    
SHAKE stats (type/ave/delta/count) on step 540000
Bond:   1   1         1.13008e-06     2000
Angle:  1   109.47    8.67958e-05     1000
    540000   55.89323      -456.41672      0             -379.55243     -0.15920957   
SHAKE stats (type/ave/delta/count) on step 550000
Bond:   1   1         1.09324e-06     2000
Angle:  1   109.47    8.46232e-05     1000
    550000   56.87641      -459.11985      0             -380.90348      1.7387907    
SHAKE stats (type/ave/delta/count) on step 560000
Bond:   1   1         1.12688e-06     2000
Angle:  1   109.47    9.67362e-05     1000
    560000   56.246949     -456.0049       0             -378.65417     -7.0350901    
SHAKE stats (type/ave/delta/count) on step 570000
Bond:   1   1         1.13343e-06     2000
Angle:  1   109.47    8.73671e-05     1000
    570000   57.370701     -459.95589      0             -381.05977     -2.9041777    
SHAKE stats (type/ave/delta/count) on step 580000
Bond:   1   1         1.09137e-06     2000
Angle:  1   109.47    9.10715e-05     1000
    580000   58.873425     -456.70719      0             -375.74454     -7.7800899    
SHAKE stats (type/ave/delta/count) on step 590000
Bond:   1   1         1.08525e-06     2000
Angle:  1   109.47    0.000102682     1000
    590000   57.746855     -459.89614      0             -380.48274     -4.2045242    
SHAKE stats (type/ave/delta/count) on step 600000
Bond:   1   1         1.09127e-06     2000
Angle:  1   109.47    9.68467e-05     1000
    600000   56.610856     -460.76631      0             -382.91513     -4.4392782    
SHAKE stats (type/ave/delta/count) on step 610000
Bond:   1   1         1.41375e-06     2000
Angle:  1   109.47    0.000128819     1000
    610000   56.447623     -459.75582      0             -382.12912     -9.0397005    
SHAKE stats (type/ave/delta/count) on step 620000
Bond:   1   1         1.10973e-06     2000
Angle:  1   109.47    8.00034e-05     1000
    620000   54.689946     -457.45855      0             -382.24901     -4.4620321    
SHAKE stats (type/ave/delta/count) on step 630000
Bond:   1   1         1.22722e-06     2000
Angle:  1   109.47    9.5872e-05      1000
    630000   57.471558     -459.55489      0             -380.52008     -2.5872888    
SHAKE stats (type/ave/delta/count) on step 640000
Bond:   1   1         1.79273e-06     2000
Angle:  1   109.47    0.000121025     1000
    640000   56.588694     -462.25744      0             -384.43674      3.6536516    
SHAKE stats (type/ave/delta/count) on step 650000
Bond:   1   1         2.0499e-06      2000
Angle:  1   109.47    0.000160829     1000
    650000   56.044019     -458.3604       0             -381.28874     -2.361513     
SHAKE stats (type/ave/delta/count) on step 660000
Bond:   1   1         1.38616e-06     2000
Angle:  1   109.47    0.0001093       1000
    660000   55.972392     -458.30268      0             -381.32952      2.9102206    
SHAKE stats (type/ave/delta/count) on step 670000
Bond:   1   1         1.31952e-06     2000
Angle:  1   109.47    0.00012644      1000
    670000   56.844113     -457.48244      0             -379.31049     -5.0007771    
SHAKE stats (type/ave/delta/count) on step 680000
Bond:   1   1         1.48814e-06     2000
Angle:  1   109.47    0.000111173     1000
    680000   55.298204     -460.69406      0             -384.64804     -0.84288614   
SHAKE stats (type/ave/delta/count) on step 690000
Bond:   1   1         1.23495e-06     2000
Angle:  1   109.47    0.00016179      1000
    690000   55.456874     -460.81004      0             -384.54582     -2.4402213    
SHAKE stats (type/ave/delta/count) on step 700000
Bond:   1   1         1.2523e-06      2000
Angle:  1   109.47    9.78847e-05     1000
    700000   56.403093     -459.02435      0             -381.4589      -6.9976191    
SHAKE stats (type/ave/delta/count) on step 710000
Bond:   1   1         1.68249e-06     2000
Angle:  1   109.47    0.000128205     1000
    710000   57.072345     -455.3593       0             -376.87349     -0.36678509   
SHAKE stats (type/ave/delta/count) on step 720000
Bond:   1   1         1.12758e-06     2000
Angle:  1   109.47    0.000104308     1000
    720000   56.101232     -461.13987      0             -383.98953     -1.3264963    
SHAKE stats (type/ave/delta/count) on step 730000
Bond:   1   1         1.1092e-06      2000
Angle:  1   109.47    9.59894e-05     1000
    730000   56.022236     -458.51218      0             -381.47047     -4.4459393    
SHAKE stats (type/ave/delta/count) on step 740000
Bond:   1   1         1.21085e-06     2000
Angle:  1   109.47    9.12788e-05     1000
    740000   56.043929     -457.21939      0             -380.14786     -5.4253698    
SHAKE stats (type/ave/delta/count) on step 750000
Bond:   1   1         1.17709e-06     2000
Angle:  1   109.47    9.58265e-05     1000
    750000   56.612358     -455.83957      0             -377.98633     -0.91439509   
SHAKE stats (type/ave/delta/count) on step 760000
Bond:   1   1         1.36586e-06     2000
Angle:  1   109.47    0.000100306     1000
    760000   56.158138     -459.50078      0             -382.27218     -1.272323     
SHAKE stats (type/ave/delta/count) on step 770000
Bond:   1   1         9.96355e-07     2000
Angle:  1   109.47    0.000101111     1000
    770000   55.474415     -459.90506      0             -383.61672     -3.3508465    
SHAKE stats (type/ave/delta/count) on step 780000
Bond:   1   1         1.25158e-06     2000
Angle:  1   109.47    0.000122947     1000
    780000   55.913931     -462.29558      0             -385.40281      2.1139251    
SHAKE stats (type/ave/delta/count) on step 790000
Bond:   1   1         1.30846e-06     2000
Angle:  1   109.47    9.37347e-05     1000
    790000   56.953904     -460.95963      0             -382.6367      -2.7495559    
SHAKE stats (type/ave/delta/count) on step 800000
Bond:   1   1         1.07271e-06     2000
Angle:  1   109.47    8.6668e-05      1000
    800000   57.409882     -458.17562      0             -379.22563      0.35809709   
SHAKE stats (type/ave/delta/count) on step 810000
Bond:   1   1         1.30162e-06     2000
Angle:  1   109.47    0.000124384     1000
    810000   57.471639     -456.77023      0             -377.73531     -7.1148243    
SHAKE stats (type/ave/delta/count) on step 820000
Bond:   1   1         1.21608e-06     2000
Angle:  1   109.47    9.71468e-05     1000
    820000   54.743431     -460.60032      0             -385.31723     -6.3883118    
SHAKE stats (type/ave/delta/count) on step 830000
Bond:   1   1         1.87301e-06     2000
Angle:  1   109.47    0.000161379     1000
    830000   55.855616     -456.83158      0             -380.01901     -2.2251638    
SHAKE stats (type/ave/delta/count) on step 840000
Bond:   1   1         1.55472e-06     2000
Angle:  1   109.47    9.45713e-05     1000
    840000   57.350848     -461.85888      0             -382.99007     -10.413478    
SHAKE stats (type/ave/delta/count) on step 850000
Bond:   1   1         1.28047e-06     2000
Angle:  1   109.47    9.05825e-05     1000
    850000   56.593482     -460.12838      0             -382.3011      -1.5288211    
SHAKE stats (type/ave/delta/count) on step 860000
Bond:   1   1         1.51583e-06     2000
Angle:  1   109.47    0.000132031     1000
    860000   57.348644     -459.08411      0             -380.21833     -0.20229731   
SHAKE stats (type/ave/delta/count) on step 870000
Bond:   1   1         1.90632e-06     2000
Angle:  1   109.47    0.000165813     1000
    870000   56.277593     -458.86518      0             -381.4723      -7.7467251    
SHAKE stats (type/ave/delta/count) on step 880000
Bond:   1   1         1.20825e-06     2000
Angle:  1   109.47    8.74195e-05     1000
    880000   55.569371     -458.17665      0             -381.75772     -5.4296362    
SHAKE stats (type/ave/delta/count) on step 890000
Bond:   1   1         1.07846e-06     2000
Angle:  1   109.47    9.42286e-05     1000
    890000   56.479846     -459.14704      0             -381.47603     -3.9026039    
SHAKE stats (type/ave/delta/count) on step 900000
Bond:   1   1         1.55182e-06     2000
Angle:  1   109.47    0.000120435     1000
    900000   57.732199     -455.99935      0             -376.60611     -4.6678102    
SHAKE stats (type/ave/delta/count) on step 910000
Bond:   1   1         1.05381e-06     2000
Angle:  1   109.47    9.64595e-05     1000
    910000   56.865845     -454.54837      0             -376.34653      2.0215238    
SHAKE stats (type/ave/delta/count) on step 920000
Bond:   1   1         1.82537e-06     2000
Angle:  1   109.47    0.000157144     1000
    920000   55.583451     -456.11409      0             -379.6758      -6.5892825    
SHAKE stats (type/ave/delta/count) on step 930000
Bond:   1   1         1.03949e-06     2000
Angle:  1   109.47    8.74604e-05     1000
    930000   56.577331     -455.49218      0             -377.68711     -10.030884    
SHAKE stats (type/ave/delta/count) on step 940000
Bond:   1   1         1.10169e-06     2000
Angle:  1   109.47    9.12497e-05     1000
    940000   55.948924     -458.39464      0             -381.45375     -1.7323693    
SHAKE stats (type/ave/delta/count) on step 950000
Bond:   1   1         1.20231e-06     2000
Angle:  1   109.47    9.5029e-05      1000
    950000   57.520412     -458.56955      0             -379.46756     -1.948523     
SHAKE stats (type/ave/delta/count) on step 960000
Bond:   1   1         1.11556e-06     2000
Angle:  1   109.47    0.000102502     1000
    960000   56.153338     -457.90257      0             -380.68057     -6.554638     
SHAKE stats (type/ave/delta/count) on step 970000
Bond:   1   1         1.17255e-06     2000
Angle:  1   109.47    9.321e-05       1000
    970000   56.9088       -459.98879      0             -381.72788     -2.157059     
SHAKE stats (type/ave/delta/count) on step 980000
Bond:   1   1         1.34736e-06     2000
Angle:  1   109.47    9.473e-05       1000
    980000   56.819969     -456.03159      0             -377.89284     -0.22538366   
SHAKE stats (type/ave/delta/count) on step 990000
Bond:   1   1         1.18556e-06     2000
Angle:  1   109.47    0.000142774     1000
    990000   55.832568     -456.82689      0             -380.04602     -4.9728741    
SHAKE stats (type/ave/delta/count) on step 1000000
Bond:   1   1         1.49468e-06     2000
Angle:  1   109.47    0.000100141     1000
   1000000   57.784495     -456.06303      0             -376.59787      3.5387988    
SHAKE stats (type/ave/delta/count) on step 1010000
Bond:   1   1         1.19157e-06     2000
Angle:  1   109.47    0.000120618     1000
   1010000   55.766916     -461.55429      0             -384.8637      -1.4542081    
SHAKE stats (type/ave/delta/count) on step 1020000
Bond:   1   1         1.18524e-06     2000
Angle:  1   109.47    0.000109985     1000
   1020000   55.278149     -460.08606      0             -384.06762     -2.3495041    
SHAKE stats (type/ave/delta/count) on step 1030000
Bond:   1   1         1.66566e-06     2000
Angle:  1   109.47    0.000124239     1000
   1030000   57.508636     -456.84654      0             -377.76074     -8.1358098    
SHAKE stats (type/ave/delta/count) on step 1040000
Bond:   1   1         1.24675e-06     2000
Angle:  1   109.47    9.33374e-05     1000
   1040000   56.242913     -459.13732      0             -381.79214     -5.1681905    
SHAKE stats (type/ave/delta/count) on step 1050000
Bond:   1   1         1.5568e-06      2000
Angle:  1   109.47    0.000115506     1000
   1050000   56.470195     -454.92171      0             -377.26397     -5.1489087    
SHAKE stats (type/ave/delta/count) on step 1060000
Bond:   1   1         1.05334e-06     2000
Angle:  1   109.47    9.07734e-05     1000
   1060000   57.735377     -457.23626      0             -377.83864     -4.6442275    
SHAKE stats (type/ave/delta/count) on step 1070000
Bond:   1   1         1.1955e-06      2000
Angle:  1   109.47    0.000126178     1000
   1070000   56.104086     -457.27587      0             -380.1216      -3.7990212    
SHAKE stats (type/ave/delta/count) on step 1080000
Bond:   1   1         1.10016e-06     2000
Angle:  1   109.47    9.56731e-05     1000
   1080000   57.13683      -457.82804      0             -379.25355     -2.8859753    
SHAKE stats (type/ave/delta/count) on step 1090000
Bond:   1   1         1.07257e-06     2000
Angle:  1   109.47    0.000109654     1000
   1090000   57.457485     -460.98023      0             -381.96477      2.7145622    
SHAKE stats (type/ave/delta/count) on step 1100000
Bond:   1   1         1.5519e-06      2000
Angle:  1   109.47    0.000137873     1000
   1100000   57.992112     -454.91466      0             -375.16398     -6.7658106    
SHAKE stats (type/ave/delta/count) on step 1110000
Bond:   1   1         1.5781e-06      2000
Angle:  1   109.47    0.000103553     1000
   1110000   56.630255     -457.25319      0             -379.37534     -9.8384685    
SHAKE stats (type/ave/delta/count) on step 1120000
Bond:   1   1         1.48935e-06     2000
Angle:  1   109.47    0.000121283     1000
   1120000   55.912448     -459.41091      0             -382.52019     -5.655192     
SHAKE stats (type/ave/delta/count) on step 1130000
Bond:   1   1         1.32949e-06     2000
Angle:  1   109.47    0.000100268     1000
   1130000   56.283318     -462.03823      0             -384.63748     -1.7974089    
SHAKE stats (type/ave/delta/count) on step 1140000
Bond:   1   1         1.17704e-06     2000
Angle:  1   109.47    9.55519e-05     1000
   1140000   55.836936     -457.67009      0             -380.88321      0.66708197   
SHAKE stats (type/ave/delta/count) on step 1150000
Bond:   1   1         1.1663e-06      2000
Angle:  1   109.47    9.50218e-05     1000
   1150000   55.725845     -456.44155      0             -379.80744     -1.827262     
SHAKE stats (type/ave/delta/count) on step 1160000
Bond:   1   1         1.84144e-06     2000
Angle:  1   109.47    0.000147789     1000
   1160000   55.808835     -458.06188      0             -381.31365     -6.702008     
SHAKE stats (type/ave/delta/count) on step 1170000
Bond:   1   1         2.15177e-06     2000
Angle:  1   109.47    0.000161963     1000
   1170000   58.220283     -458.79742      0             -378.73297     -3.5218713    
SHAKE stats (type/ave/delta/count) on step 1180000
Bond:   1   1         1.03454e-06     2000
Angle:  1   109.47    9.03087e-05     1000
   1180000   55.311438     -458.43642      0             -382.3722      -8.1217638    
SHAKE stats (type/ave/delta/count) on step 1190000
Bond:   1   1         1.66418e-06     2000
Angle:  1   109.47    0.000105028     1000
   1190000   58.075946     -455.44583      0             -375.57987     -3.2648841    
SHAKE stats (type/ave/delta/count) on step 1200000
Bond:   1   1         1.05016e-06     2000
Angle:  1   109.47    9.30623e-05     1000
   1200000   55.39272      -458.7853       0             -382.6093      -1.2304694    
SHAKE stats (type/ave/delta/count) on step 1210000
Bond:   1   1         1.20161e-06     2000
Angle:  1   109.47    0.00010877      1000
   1210000   57.454976     -457.11934      0             -378.10734      0.16273316   
SHAKE stats (type/ave/delta/count) on step 1220000
Bond:   1   1         1.09292e-06     2000
Angle:  1   109.47    8.88816e-05     1000
   1220000   56.167934     -458.26191      0             -381.01984     -3.4848872    
SHAKE stats (type/ave/delta/count) on step 1230000
Bond:   1   1         1.28015e-06     2000
Angle:  1   109.47    9.39073e-05     1000
   1230000   55.884654     -461.08614      0             -384.23364     -2.6367159    
SHAKE stats (type/ave/delta/count) on step 1240000
Bond:   1   1         1.13495e-06     2000
Angle:  1   109.47    9.92886e-05     1000
   1240000   57.000717     -460.06999      0             -381.68268     -0.91847198   
SHAKE stats (type/ave/delta/count) on step 1250000
Bond:   1   1         1.22021e-06     2000
Angle:  1   109.47    0.000101449     1000
   1250000   55.831261     -458.06713      0             -381.28806     -3.4590499    
SHAKE stats (type/ave/delta/count) on step 1260000
Bond:   1   1         1.23788e-06     2000
Angle:  1   109.47    9.29829e-05     1000
   1260000   56.106331     -457.68358      0             -380.52622     -9.8690233    
SHAKE stats (type/ave/delta/count) on step 1270000
Bond:   1   1         1.40487e-06     2000
Angle:  1   109.47    0.000120317     1000
   1270000   54.534829     -458.59296      0             -383.59674     -9.2520296    
SHAKE stats (type/ave/delta/count) on step 1280000
Bond:   1   1         1.9587e-06      2000
Angle:  1   109.47    0.00017242      1000
   1280000   55.754691     -456.68048      0             -380.00671      3.1769881    
SHAKE stats (type/ave/delta/count) on step 1290000
Bond:   1   1         1.33532e-06     2000
Angle:  1   109.47    0.000109392     1000
   1290000   54.438302     -457.26254      0             -382.39906     -4.1649375    
SHAKE stats (type/ave/delta/count) on step 1300000
Bond:   1   1         1.54255e-06     2000
Angle:  1   109.47    0.000105674     1000
   1300000   55.597405     -459.46491      0             -383.00743     -9.9914037    
SHAKE stats (type/ave/delta/count) on step 1310000
Bond:   1   1         2.1659e-06      2000
Angle:  1   109.47    0.00014565      1000
   1310000   56.363169     -462.51488      0             -385.00433     -6.2023265    
SHAKE stats (type/ave/delta/count) on step 1320000
Bond:   1   1         1.09202e-06     2000
Angle:  1   109.47    0.000111295     1000
   1320000   55.381696     -458.48626      0             -382.32543      3.242928     
SHAKE stats (type/ave/delta/count) on step 1330000
Bond:   1   1         1.22048e-06     2000
Angle:  1   109.47    9.86154e-05     1000
   1330000   56.90438      -458.29275      0             -380.03792     -1.3407592    
SHAKE stats (type/ave/delta/count) on step 1340000
Bond:   1   1         1.59265e-06     2000
Angle:  1   109.47    0.00010818      1000
   1340000   55.888241     -465.05732      0             -388.19988      3.0461248    
SHAKE stats (type/ave/delta/count) on step 1350000
Bond:   1   1         1.54037e-06     2000
Angle:  1   109.47    0.000124763     1000
   1350000   57.700849     -459.4242       0             -380.07407     -9.5744763    
SHAKE stats (type/ave/delta/count) on step 1360000
Bond:   1   1         1.34091e-06     2000
Angle:  1   109.47    0.000156134     1000
   1360000   58.514227     -461.04549      0             -380.5768      -6.1477669    
SHAKE stats (type/ave/delta/count) on step 1370000
Bond:   1   1         1.12965e-06     2000
Angle:  1   109.47    9.78343e-05     1000
   1370000   55.894812     -456.99506      0             -380.12859      0.6396598    
SHAKE stats (type/ave/delta/count) on step 1380000
Bond:   1   1         1.88755e-06     2000
Angle:  1   109.47    0.000140291     1000
   1380000   56.583509     -460.16043      0             -382.34686     -2.0577374    
SHAKE stats (type/ave/delta/count) on step 1390000
Bond:   1   1         1.20171e-06     2000
Angle:  1   109.47    9.74183e-05     1000
   1390000   57.537563     -455.4863       0             -376.36072     -5.0380804    
SHAKE stats (type/ave/delta/count) on step 1400000
Bond:   1   1         1.59072e-06     2000
Angle:  1   109.47    0.000149193     1000
   1400000   57.624434     -463.38055      0             -384.1355       3.9312938    
SHAKE stats (type/ave/delta/count) on step 1410000
Bond:   1   1         1.44145e-06     2000
Angle:  1   109.47    0.000114237     1000
   1410000   55.009574     -459.96672      0             -384.31762     -7.000597     
SHAKE stats (type/ave/delta/count) on step 1420000
Bond:   1   1         1.34003e-06     2000
Angle:  1   109.47    9.26484e-05     1000
   1420000   57.756793     -457.88501      0             -378.45794      2.651783     
SHAKE stats (type/ave/delta/count) on step 1430000
Bond:   1   1         1.13844e-06     2000
Angle:  1   109.47    0.000111572     1000
   1430000   57.255994     -459.56574      0             -380.82737     -9.4761068    
SHAKE stats (type/ave/delta/count) on step 1440000
Bond:   1   1         1.17896e-06     2000
Angle:  1   109.47    9.16422e-05     1000
   1440000   56.558066     -459.08221      0             -381.30363     -3.3794991    
SHAKE stats (type/ave/delta/count) on step 1450000
Bond:   1   1         1.05183e-06     2000
Angle:  1   109.47    9.88179e-05     1000
   1450000   57.0222       -458.3052       0             -379.88834     -2.9129718    
SHAKE stats (type/ave/delta/count) on step 1460000
Bond:   1   1         1.34478e-06     2000
Angle:  1   109.47    0.00011809      1000
   1460000   56.535909     -463.55753      0             -385.80942      1.0993205    
SHAKE stats (type/ave/delta/count) on step 1470000
Bond:   1   1         1.32254e-06     2000
Angle:  1   109.47    9.84572e-05     1000
   1470000   57.115231     -461.23159      0             -382.6868      -4.0297597    
SHAKE stats (type/ave/delta/count) on step 1480000
Bond:   1   1         1.07819e-06     2000
Angle:  1   109.47    9.79004e-05     1000
   1480000   56.14462      -460.3045       0             -383.09449     -3.5261969    
SHAKE stats (type/ave/delta/count) on step 1490000
Bond:   1   1         1.10784e-06     2000
Angle:  1   109.47    9.90482e-05     1000
   1490000   55.70009      -462.15806      0             -385.55937      2.4626044    
SHAKE stats (type/ave/delta/count) on step 1500000
Bond:   1   1         1.57824e-06     2000
Angle:  1   109.47    0.000116735     1000
   1500000   55.949893     -458.1766       0             -381.23438     -7.4365621    
SHAKE stats (type/ave/delta/count) on step 1510000
Bond:   1   1         1.27788e-06     2000
Angle:  1   109.47    8.99514e-05     1000
   1510000   55.906658     -461.62692      0             -384.74416     -1.292942     
SHAKE stats (type/ave/delta/count) on step 1520000
Bond:   1   1         1.14133e-06     2000
Angle:  1   109.47    8.35959e-05     1000
   1520000   55.70212      -456.57914      0             -379.97765     -5.808331     
SHAKE stats (type/ave/delta/count) on step 1530000
Bond:   1   1         1.13523e-06     2000
Angle:  1   109.47    9.68122e-05     1000
   1530000   56.406625     -459.00452      0             -381.4342      -7.3358055    
SHAKE stats (type/ave/delta/count) on step 1540000
Bond:   1   1         1.24303e-06     2000
Angle:  1   109.47    0.000119768     1000
   1540000   57.320969     -465.53514      0             -386.70742     -1.518913     
SHAKE stats (type/ave/delta/count) on step 1550000
Bond:   1   1         1.3533e-06      2000
Angle:  1   109.47    0.000121414     1000
   1550000   54.982277     -460.22263      0             -384.61107     -13.188868    
SHAKE stats (type/ave/delta/count) on step 1560000
Bond:   1   1         2.07592e-06     2000
Angle:  1   109.47    0.000145532     1000
   1560000   54.965125     -458.80036      0             -383.21239      1.3703488    
SHAKE stats (type/ave/delta/count) on step 1570000
Bond:   1   1         1.56752e-06     2000
Angle:  1   109.47    0.00012869      1000
   1570000   56.944029     -456.50405      0             -378.1947      -4.4021729    
SHAKE stats (type/ave/delta/count) on step 1580000
Bond:   1   1         1.37751e-06     2000
Angle:  1   109.47    9.19092e-05     1000
   1580000   55.856823     -459.8689       0             -383.05467     -1.7344514    
SHAKE stats (type/ave/delta/count) on step 1590000
Bond:   1   1         1.30301e-06     2000
Angle:  1   109.47    9.12258e-05     1000
   1590000   56.030913     -461.37482      0             -384.32118     -8.0868054    
SHAKE stats (type/ave/delta/count) on step 1600000
Bond:   1   1         1.05485e-06     2000
Angle:  1   109.47    8.53081e-05     1000
   1600000   56.90696      -460.98599      0             -382.72761     -5.736744     
SHAKE stats (type/ave/delta/count) on step 1610000
Bond:   1   1         1.4049e-06      2000
Angle:  1   109.47    0.000106845     1000
   1610000   56.974797     -459.85117      0             -381.49951      0.36645382   
SHAKE stats (type/ave/delta/count) on step 1620000
Bond:   1   1         1.07811e-06     2000
Angle:  1   109.47    8.53206e-05     1000
   1620000   54.830231     -459.52209      0             -384.11963     -9.8728126    
SHAKE stats (type/ave/delta/count) on step 1630000
Bond:   1   1         1.0653e-06      2000
Angle:  1   109.47    9.29887e-05     1000
   1630000   55.477169     -463.1746       0             -386.88247     -1.4060808    
SHAKE stats (type/ave/delta/count) on step 1640000
Bond:   1   1         1.10439e-06     2000
Angle:  1   109.47    9.50423e-05     1000
   1640000   56.043964     -459.31818      0             -382.24659     -1.9035162    
SHAKE stats (type/ave/delta/count) on step 1650000
Bond:   1   1         1.71743e-06     2000
Angle:  1   109.47    9.73793e-05     1000
   1650000   55.988958     -455.63559      0             -378.63965     -13.171728    
SHAKE stats (type/ave/delta/count) on step 1660000
Bond:   1   1         1.17889e-06     2000
Angle:  1   109.47    0.00014563      1000
   1660000   57.928117     -461.73112      0             -382.06845     -1.7976966    
SHAKE stats (type/ave/delta/count) on step 1670000
Bond:   1   1         1.26903e-06     2000
Angle:  1   109.47    8.78794e-05     1000
   1670000   55.509048     -462.91517      0             -386.5792      -6.7531958    
SHAKE stats (type/ave/delta/count) on step 1680000
Bond:   1   1         1.22901e-06     2000
Angle:  1   109.47    9.48263e-05     1000
   1680000   58.700259     -462.3753       0             -381.65078      0.6935372    
SHAKE stats (type/ave/delta/count) on step 1690000
Bond:   1   1         1.72764e-06     2000
Angle:  1   109.47    0.000129892     1000
   1690000   58.04494      -460.74155      0             -380.91822     -2.8585785    
SHAKE stats (type/ave/delta/count) on step 1700000
Bond:   1   1         1.10131e-06     2000
Angle:  1   109.47    8.70185e-05     1000
   1700000   54.922818     -454.61947      0             -379.08969     -7.726867     
SHAKE stats (type/ave/delta/count) on step 1710000
Bond:   1   1         1.26344e-06     2000
Angle:  1   109.47    9.8502e-05      1000
   1710000   58.127351     -459.78868      0             -379.85202     -1.991298     
SHAKE stats (type/ave/delta/count) on step 1720000
Bond:   1   1         1.33628e-06     2000
Angle:  1   109.47    0.000111785     1000
   1720000   56.605646     -462.29653      0             -384.45252     -6.8992637    
SHAKE stats (type/ave/delta/count) on step 1730000
Bond:   1   1         1.14833e-06     2000
Angle:  1   109.47    0.000101428     1000
   1730000   56.94858      -460.68543      0             -382.36982     -0.4695646    
SHAKE stats (type/ave/delta/count) on step 1740000
Bond:   1   1         1.52109e-06     2000
Angle:  1   109.47    0.000115259     1000
   1740000   56.430444     -458.44491      0             -380.84184     -3.1008646    
SHAKE stats (type/ave/delta/count) on step 1750000
Bond:   1   1         1.00893e-06     2000
Angle:  1   109.47    9.80304e-05     1000
   1750000   57.397398     -460.06739      0             -381.13457     -1.0135167    
SHAKE stats (type/ave/delta/count) on step 1760000
Bond:   1   1         1.49035e-06     2000
Angle:  1   109.47    0.000110925     1000
   1760000   55.617642     -457.26231      0             -380.77701     -11.168271    
SHAKE stats (type/ave/delta/count) on step 1770000
Bond:   1   1         1.20475e-06     2000
Angle:  1   109.47    0.00010791      1000
   1770000   56.258937     -460.64328      0             -383.27607     -3.1925504    
SHAKE stats (type/ave/delta/count) on step 1780000
Bond:   1   1         1.79321e-06     2000
Angle:  1   109.47    0.000118852     1000
   1780000   56.386123     -458.24194      0             -380.69982     -8.0862529    
SHAKE stats (type/ave/delta/count) on step 1790000
Bond:   1   1         1.21446e-06     2000
Angle:  1   109.47    0.000121775     1000
   1790000   57.382022     -459.21129      0             -380.29961     -4.3950054    
SHAKE stats (type/ave/delta/count) on step 1800000
Bond:   1   1         1.29319e-06     2000
Angle:  1   109.47    0.000131946     1000
   1800000   56.541322     -460.30672      0             -382.55117     -4.0437116    
SHAKE stats (type/ave/delta/count) on step 1810000
Bond:   1   1         1.08639e-06     2000
Angle:  1   109.47    9.19711e-05     1000
   1810000   55.929867     -455.86809      0             -378.95342     -6.9779835    
SHAKE stats (type/ave/delta/count) on step 1820000
Bond:   1   1         1.20094e-06     2000
Angle:  1   109.47    0.000101024     1000
   1820000   57.347219     -455.67655      0             -376.81273     -9.0897814    
SHAKE stats (type/ave/delta/count) on step 1830000
Bond:   1   1         1.33647e-06     2000
Angle:  1   109.47    0.000106929     1000
   1830000   56.972412     -461.45449      0             -383.10611     -2.7549568    
SHAKE stats (type/ave/delta/count) on step 1840000
Bond:   1   1         2.16861e-06     2000
Angle:  1   109.47    0.000125281     1000
   1840000   54.486045     -462.09858      0             -387.16944     -10.665866    
SHAKE stats (type/ave/delta/count) on step 1850000
Bond:   1   1         1.18842e-06     2000
Angle:  1   109.47    9.50606e-05     1000
   1850000   57.795631     -461.26403      0             -381.78355     -7.7974744    
SHAKE stats (type/ave/delta/count) on step 1860000
Bond:   1   1         1.44818e-06     2000
Angle:  1   109.47    0.000116594     1000
   1860000   56.34265      -462.15574      0             -384.6734      -5.2192515    
SHAKE stats (type/ave/delta/count) on step 1870000
Bond:   1   1         1.26502e-06     2000
Angle:  1   109.47    0.00010834      1000
   1870000   57.845891     -459.22711      0             -379.67752     -3.4218806    
SHAKE stats (type/ave/delta/count) on step 1880000
Bond:   1   1         1.4498e-06      2000
Angle:  1   109.47    0.000104561     1000
   1880000   55.28201      -459.60649      0             -383.58274     -3.0154606    
SHAKE stats (type/ave/delta/count) on step 1890000
Bond:   1   1         1.0859e-06      2000
Angle:  1   109.47    8.02712e-05     1000
   1890000   54.584687     -457.8183       0             -382.75351     -6.3520188    
SHAKE stats (type/ave/delta/count) on step 1900000
Bond:   1   1         1.71808e-06     2000
Angle:  1   109.47    0.000140837     1000
   1900000   55.99475      -455.33909      0             -378.33519     -1.9858933    
SHAKE stats (type/ave/delta/count) on step 1910000
Bond:   1   1         1.30563e-06     2000
Angle:  1   109.47    8.66656e-05     1000
   1910000   58.578645     -458.64211      0             -378.08484     -3.202993     
SHAKE stats (type/ave/delta/count) on step 1920000
Bond:   1   1         1.23904e-06     2000
Angle:  1   109.47    9.69992e-05     1000
   1920000   56.286046     -461.81099      0             -384.4065      -2.8128249    
SHAKE stats (type/ave/delta/count) on step 1930000
Bond:   1   1         1.35821e-06     2000
Angle:  1   109.47    9.04795e-05     1000
   1930000   57.617134     -461.44622      0             -382.21122     -1.5887124    
SHAKE stats (type/ave/delta/count) on step 1940000
Bond:   1   1         1.06831e-06     2000
Angle:  1   109.47    9.9962e-05      1000
   1940000   58.276568     -463.76494      0             -383.62308     -5.0590294    
SHAKE stats (type/ave/delta/count) on step 1950000
Bond:   1   1         1.11326e-06     2000
Angle:  1   109.47    9.89078e-05     1000
   1950000   56.420384     -461.72204      0             -384.1328      -8.3698935    
SHAKE stats (type/ave/delta/count) on step 1960000
Bond:   1   1         1.10154e-06     2000
Angle:  1   109.47    9.34975e-05     1000
   1960000   53.732378     -459.85004      0             -385.95735      0.22244565   
SHAKE stats (type/ave/delta/count) on step 1970000
Bond:   1   1         1.10197e-06     2000
Angle:  1   109.47    9.50287e-05     1000
   1970000   56.214112     -461.57003      0             -384.26445     -8.7707762    
SHAKE stats (type/ave/delta/count) on step 1980000
Bond:   1   1         1.15564e-06     2000
Angle:  1   109.47    9.38615e-05     1000
   1980000   53.980283     -459.80652      0             -385.57291     -0.086819189  
SHAKE stats (type/ave/delta/count) on step 1990000
Bond:   1   1         1.38434e-06     2000
Angle:  1   109.47    0.00010663      1000
   1990000   53.257522     -459.70327      0             -386.4636      -7.6026474    
SHAKE stats (type/ave/delta/count) on step 2000000
Bond:   1   1         1.27274e-06     2000
Angle:  1   109.47    9.94952e-05     1000
   2000000   55.477575     -459.83082      0             -383.53813     -6.1407226    
Loop time of 14167.9 on 256 procs for 2000000 steps with 11640 atoms

Performance: 12.197 ns/day, 1.968 hours/ns, 141.164 timesteps/s, 1.643 Matom-step/s
100.0% CPU use with 256 MPI tasks x 1 OpenMP threads

MPI task timing breakdown:
Section |  min time  |  avg time  |  max time  |%varavg| %total
---------------------------------------------------------------
Pair    | 0.21773    | 156.05     | 4469.5     |4324.2 |  1.10
Bond    | 0.16593    | 0.32748    | 1.2471     |  17.7 |  0.00
Kspace  | 8143.2     | 12220      | 12426      | 458.4 | 86.25
Neigh   | 557.09     | 573.31     | 579.95     |  27.1 |  4.05
Comm    | 5.5132     | 122.83     | 637.41     |1617.9 |  0.87
Output  | 59.463     | 83.568     | 107.46     | 141.1 |  0.59
Modify  | 352.34     | 946.75     | 1105.4     | 582.4 |  6.68
Other   |            | 65.18      |            |       |  0.46

Nlocal:        45.4688 ave        1234 max           0 min
Histogram: 223 1 26 2 0 2 0 1 0 1
Nghost:        271.543 ave        2440 max           0 min
Histogram: 186 0 22 28 7 4 3 4 0 2
Neighs:        5013.62 ave      265635 max           0 min
Histogram: 250 1 1 0 2 1 0 0 0 1

Total # of neighbors = 1283486
Ave neighs/atom = 110.26512
Ave special neighs/atom = 0.51546392
Neighbor list builds = 94765
Dangerous builds = 0
undump DUMP0
write_restart nvt_prod.restart.*
System init for write_restart ...
PPPM initialization ...
  using 12-bit tables for long-range coulomb (src/kspace.cpp:342)
  G vector (1/distance) = 0.27466065
  grid = 72 72 72
  stencil order = 5
  estimated absolute RMS force accuracy = 0.00016054877
  estimated relative force accuracy = 1.1149495e-05
  using double precision KISS FFT
  3d grid and FFT values/proc = 4508 1800
Generated 0 of 3 mixed pair_coeff terms from geometric mixing rule

dump DUMP1 all atom 100 nvt_prod_1.lammpstrj
run 2000000
PPPM initialization ...
  using 12-bit tables for long-range coulomb (src/kspace.cpp:342)
  G vector (1/distance) = 0.27466065
  grid = 72 72 72
  stencil order = 5
  estimated absolute RMS force accuracy = 0.00016054877
  estimated relative force accuracy = 1.1149495e-05
  using double precision KISS FFT
  3d grid and FFT values/proc = 4508 1800
Generated 0 of 3 mixed pair_coeff terms from geometric mixing rule
SHAKE stats (type/ave/delta/count) on step 2000000
Bond:   1   1         1.27274e-06     2000
Angle:  1   109.47    9.94952e-05     1000
Per MPI rank memory allocation (min/avg/max) = 8.176 | 8.291 | 9.644 Mbytes
   Step          Temp          E_pair         E_mol          TotEng         Press     
   2000000   55.477575     -459.83082      0             -383.53813     -6.1373523    
SHAKE stats (type/ave/delta/count) on step 2010000
Bond:   1   1         1.0155e-06      2000
Angle:  1   109.47    8.91006e-05     1000
   2010000   57.070069     -459.515        0             -381.03231      1.7355272    
SHAKE stats (type/ave/delta/count) on step 2020000
Bond:   1   1         1.08656e-06     2000
Angle:  1   109.47    0.000101652     1000
   2020000   55.443858     -455.3721       0             -379.12578     -3.0231204    
SHAKE stats (type/ave/delta/count) on step 2030000
Bond:   1   1         1.6925e-06      2000
Angle:  1   109.47    0.000136733     1000
   2030000   57.33177      -461.39075      0             -382.54818     -4.8249292    
SHAKE stats (type/ave/delta/count) on step 2040000
Bond:   1   1         1.15155e-06     2000
Angle:  1   109.47    9.29576e-05     1000
   2040000   56.442667     -458.76303      0             -381.14314     -5.6071616    
SHAKE stats (type/ave/delta/count) on step 2050000
Bond:   1   1         1.17889e-06     2000
Angle:  1   109.47    0.000131994     1000
   2050000   55.464103     -461.06047      0             -384.78631      1.3835211    
SHAKE stats (type/ave/delta/count) on step 2060000
Bond:   1   1         1.08492e-06     2000
Angle:  1   109.47    9.31531e-05     1000
   2060000   57.024069     -460.54942      0             -382.12999     -7.001338     
SHAKE stats (type/ave/delta/count) on step 2070000
Bond:   1   1         1.55913e-06     2000
Angle:  1   109.47    0.000127755     1000
   2070000   55.554883     -458.50728      0             -382.10828     -4.3591836    
SHAKE stats (type/ave/delta/count) on step 2080000
Bond:   1   1         1.22021e-06     2000
Angle:  1   109.47    9.31868e-05     1000
   2080000   56.579451     -459.61571      0             -381.80773      2.2568271    
SHAKE stats (type/ave/delta/count) on step 2090000
Bond:   1   1         1.31872e-06     2000
Angle:  1   109.47    0.000116359     1000
   2090000   55.712962     -458.90289      0             -382.2865      -9.1802528    
SHAKE stats (type/ave/delta/count) on step 2100000
Bond:   1   1         1.46976e-06     2000
Angle:  1   109.47    0.00012759      1000
   2100000   57.402064     -459.33562      0             -380.39638     -3.1941731    
SHAKE stats (type/ave/delta/count) on step 2110000
Bond:   1   1         1.20073e-06     2000
Angle:  1   109.47    9.16189e-05     1000
   2110000   56.345032     -461.15278      0             -383.66717     -2.9652581    
SHAKE stats (type/ave/delta/count) on step 2120000
Bond:   1   1         1.56162e-06     2000
Angle:  1   109.47    0.000107687     1000
   2120000   56.637817     -459.50934      0             -381.62109     -3.6370886    
SHAKE stats (type/ave/delta/count) on step 2130000
Bond:   1   1         1.18005e-06     2000
Angle:  1   109.47    0.000102634     1000
   2130000   55.841442     -456.746        0             -379.95292     -3.8713606    
SHAKE stats (type/ave/delta/count) on step 2140000
Bond:   1   1         9.93327e-07     2000
Angle:  1   109.47    8.53306e-05     1000
   2140000   55.44167      -461.95957      0             -385.71625     -3.8758821    
SHAKE stats (type/ave/delta/count) on step 2150000
Bond:   1   1         1.27952e-06     2000
Angle:  1   109.47    9.5753e-05      1000
   2150000   55.864527     -460.90981      0             -384.08498     -5.5487481    
SHAKE stats (type/ave/delta/count) on step 2160000
Bond:   1   1         1.01409e-06     2000
Angle:  1   109.47    8.85139e-05     1000
   2160000   55.545454     -458.63789      0             -382.25186     -6.1592372    
SHAKE stats (type/ave/delta/count) on step 2170000
Bond:   1   1         1.15296e-06     2000
Angle:  1   109.47    0.000100439     1000
   2170000   55.175944     -458.39958      0             -382.5217      -1.9201235    
SHAKE stats (type/ave/delta/count) on step 2180000
Bond:   1   1         1.57297e-06     2000
Angle:  1   109.47    0.000104625     1000
   2180000   56.511134     -457.67639      0             -379.96236     -5.1313108    
SHAKE stats (type/ave/delta/count) on step 2190000
Bond:   1   1         1.59188e-06     2000
Angle:  1   109.47    0.000110389     1000
   2190000   56.401842     -463.5892       0             -386.02546     -2.8460176    
SHAKE stats (type/ave/delta/count) on step 2200000
Bond:   1   1         1.06382e-06     2000
Angle:  1   109.47    9.17659e-05     1000
   2200000   57.394495     -460.62257      0             -381.69374     -11.543688    
SHAKE stats (type/ave/delta/count) on step 2210000
Bond:   1   1         1.27758e-06     2000
Angle:  1   109.47    8.90798e-05     1000
   2210000   55.142685     -457.87365      0             -382.0415      -12.832327    
SHAKE stats (type/ave/delta/count) on step 2220000
Bond:   1   1         1.10298e-06     2000
Angle:  1   109.47    9.80119e-05     1000
   2220000   57.798069     -458.71706      0             -379.23323      0.92816822   
SHAKE stats (type/ave/delta/count) on step 2230000
Bond:   1   1         1.21272e-06     2000
Angle:  1   109.47    0.000106992     1000
   2230000   55.608457     -459.00583      0             -382.53315      1.5809073    
SHAKE stats (type/ave/delta/count) on step 2240000
Bond:   1   1         1.10858e-06     2000
Angle:  1   109.47    0.00010392      1000
   2240000   56.891076     -459.76505      0             -381.52852     -4.2935602    
SHAKE stats (type/ave/delta/count) on step 2250000
Bond:   1   1         1.09602e-06     2000
Angle:  1   109.47    9.01857e-05     1000
   2250000   57.560051     -460.29079      0             -381.13428     -7.0756919    
SHAKE stats (type/ave/delta/count) on step 2260000
Bond:   1   1         1.11321e-06     2000
Angle:  1   109.47    8.90509e-05     1000
   2260000   55.283979     -458.38828      0             -382.36182     -7.8390925    
SHAKE stats (type/ave/delta/count) on step 2270000
Bond:   1   1         1.2903e-06      2000
Angle:  1   109.47    8.96883e-05     1000
   2270000   57.107643     -459.38014      0             -380.84579      4.0541537    
SHAKE stats (type/ave/delta/count) on step 2280000
Bond:   1   1         1.42869e-06     2000
Angle:  1   109.47    0.000121247     1000
   2280000   57.503942     -456.97111      0             -377.89177     -5.261677     
SHAKE stats (type/ave/delta/count) on step 2290000
Bond:   1   1         1.1524e-06      2000
Angle:  1   109.47    9.82874e-05     1000
   2290000   56.468772     -460.57468      0             -382.9189      -4.6106464    
SHAKE stats (type/ave/delta/count) on step 2300000
Bond:   1   1         1.17789e-06     2000
Angle:  1   109.47    8.7346e-05      1000
   2300000   55.695244     -459.8207       0             -383.22868     -4.2799506    
SHAKE stats (type/ave/delta/count) on step 2310000
Bond:   1   1         1.46714e-06     2000
Angle:  1   109.47    9.13941e-05     1000
   2310000   55.553299     -461.64064      0             -385.24381     -3.6208272    
SHAKE stats (type/ave/delta/count) on step 2320000
Bond:   1   1         1.16804e-06     2000
Angle:  1   109.47    0.000100713     1000
   2320000   56.862187     -460.22601      0             -382.02921      0.27764543   
SHAKE stats (type/ave/delta/count) on step 2330000
Bond:   1   1         1.34223e-06     2000
Angle:  1   109.47    8.78526e-05     1000
   2330000   55.806733     -462.20895      0             -385.4636       0.74939282   
SHAKE stats (type/ave/delta/count) on step 2340000
Bond:   1   1         1.04784e-06     2000
Angle:  1   109.47    9.31964e-05     1000
   2340000   56.006109     -460.62679      0             -383.60726     -8.4333683    
SHAKE stats (type/ave/delta/count) on step 2350000
Bond:   1   1         1.22109e-06     2000
Angle:  1   109.47    8.95757e-05     1000
   2350000   55.589357     -462.33915      0             -385.89274     -2.2720056    
SHAKE stats (type/ave/delta/count) on step 2360000
Bond:   1   1         1.05074e-06     2000
Angle:  1   109.47    8.29865e-05     1000
   2360000   56.233433     -460.74963      0             -383.41748     -5.4131949    
SHAKE stats (type/ave/delta/count) on step 2370000
Bond:   1   1         1.63215e-06     2000
Angle:  1   109.47    0.00013721      1000
   2370000   55.87419      -459.28976      0             -382.45165     -0.53736296   
SHAKE stats (type/ave/delta/count) on step 2380000
Bond:   1   1         1.67844e-06     2000
Angle:  1   109.47    0.00011553      1000
   2380000   55.979973     -457.9875       0             -381.00391     -4.5348967    
SHAKE stats (type/ave/delta/count) on step 2390000
Bond:   1   1         1.74105e-06     2000
Angle:  1   109.47    0.000117986     1000
   2390000   55.669919     -457.54809      0             -380.99089     -6.945078     
SHAKE stats (type/ave/delta/count) on step 2400000
Bond:   1   1         1.1205e-06      2000
Angle:  1   109.47    9.03951e-05     1000
   2400000   55.333043     -458.67085      0             -382.57692      0.6289774    
SHAKE stats (type/ave/delta/count) on step 2410000
Bond:   1   1         1.50348e-06     2000
Angle:  1   109.47    0.000125808     1000
   2410000   57.09         -458.70182      0             -380.19173     -5.4539197    
SHAKE stats (type/ave/delta/count) on step 2420000
Bond:   1   1         1.51114e-06     2000
Angle:  1   109.47    0.000109494     1000
   2420000   55.287048     -460.94937      0             -384.91869     -8.1012615    
SHAKE stats (type/ave/delta/count) on step 2430000
Bond:   1   1         1.2693e-06      2000
Angle:  1   109.47    0.0001272       1000
   2430000   57.004555     -460.27325      0             -381.88067     -10.12684     
SHAKE stats (type/ave/delta/count) on step 2440000
Bond:   1   1         1.22168e-06     2000
Angle:  1   109.47    0.000100738     1000
   2440000   56.695683     -463.24221      0             -385.27438     -0.77135374   
SHAKE stats (type/ave/delta/count) on step 2450000
Bond:   1   1         1.17609e-06     2000
Angle:  1   109.47    9.4142e-05      1000
   2450000   56.732136     -460.12717      0             -382.10921     -5.3002946    
SHAKE stats (type/ave/delta/count) on step 2460000
Bond:   1   1         1.16304e-06     2000
Angle:  1   109.47    9.01628e-05     1000
   2460000   55.141719     -460.06674      0             -384.23592     -11.080062    
SHAKE stats (type/ave/delta/count) on step 2470000
Bond:   1   1         1.16739e-06     2000
Angle:  1   109.47    9.77377e-05     1000
   2470000   54.910402     -462.00321      0             -386.4905      -5.5848289    
SHAKE stats (type/ave/delta/count) on step 2480000
Bond:   1   1         1.83175e-06     2000
Angle:  1   109.47    0.000161063     1000
   2480000   57.970244     -460.17809      0             -380.45749     -3.5424574    
SHAKE stats (type/ave/delta/count) on step 2490000
Bond:   1   1         1.14917e-06     2000
Angle:  1   109.47    8.99139e-05     1000
   2490000   55.774698     -463.16778      0             -386.46649     -1.5374194    
SHAKE stats (type/ave/delta/count) on step 2500000
Bond:   1   1         1.41615e-06     2000
Angle:  1   109.47    0.000105041     1000
   2500000   57.645341     -461.23643      0             -381.96263     -7.1491095    
SHAKE stats (type/ave/delta/count) on step 2510000
Bond:   1   1         1.1679e-06      2000
Angle:  1   109.47    9.27588e-05     1000
   2510000   56.630259     -460.98407      0             -383.10622     -2.1985901    
SHAKE stats (type/ave/delta/count) on step 2520000
Bond:   1   1         9.7846e-07      2000
Angle:  1   109.47    8.10633e-05     1000
   2520000   55.948526     -463.14779      0             -386.20745     -0.098265264  
SHAKE stats (type/ave/delta/count) on step 2530000
Bond:   1   1         1.02929e-06     2000
Angle:  1   109.47    8.56665e-05     1000
   2530000   57.625432     -460.13155      0             -380.88513     -1.0133659    
SHAKE stats (type/ave/delta/count) on step 2540000
Bond:   1   1         1.6624e-06      2000
Angle:  1   109.47    0.000113166     1000
   2540000   55.966675     -457.93007      0             -380.96477      2.4775217    
SHAKE stats (type/ave/delta/count) on step 2550000
Bond:   1   1         1.19175e-06     2000
Angle:  1   109.47    8.81264e-05     1000
   2550000   57.15552      -461.08583      0             -382.48564     -3.6589092    
SHAKE stats (type/ave/delta/count) on step 2560000
Bond:   1   1         1.46696e-06     2000
Angle:  1   109.47    9.75412e-05     1000
   2560000   56.5469       -461.64984      0             -383.88661     -2.3545764    
SHAKE stats (type/ave/delta/count) on step 2570000
Bond:   1   1         1.24981e-06     2000
Angle:  1   109.47    9.11584e-05     1000
   2570000   54.880778     -462.04196      0             -386.56999     -7.3419554    
SHAKE stats (type/ave/delta/count) on step 2580000
Bond:   1   1         1.01308e-06     2000
Angle:  1   109.47    8.58635e-05     1000
   2580000   54.074345     -458.84716      0             -384.48419     -7.4369987    
SHAKE stats (type/ave/delta/count) on step 2590000
Bond:   1   1         1.33596e-06     2000
Angle:  1   109.47    0.000120323     1000
   2590000   56.258843     -459.47233      0             -382.10525      1.4117644    
SHAKE stats (type/ave/delta/count) on step 2600000
Bond:   1   1         1.11254e-06     2000
Angle:  1   109.47    8.50149e-05     1000
   2600000   57.494249     -453.29942      0             -374.2334      -2.4212003    
SHAKE stats (type/ave/delta/count) on step 2610000
Bond:   1   1         1.68866e-06     2000
Angle:  1   109.47    0.000118639     1000
   2610000   58.21884      -459.80614      0             -379.74367     -4.6225221    
SHAKE stats (type/ave/delta/count) on step 2620000
Bond:   1   1         1.27169e-06     2000
Angle:  1   109.47    0.000115255     1000
   2620000   54.819767     -459.1728       0             -383.78473      1.4990797    
SHAKE stats (type/ave/delta/count) on step 2630000
Bond:   1   1         1.27942e-06     2000
Angle:  1   109.47    0.000100969     1000
   2630000   56.34342      -459.59747      0             -382.11407     -4.3390079    
SHAKE stats (type/ave/delta/count) on step 2640000
Bond:   1   1         1.09431e-06     2000
Angle:  1   109.47    9.88074e-05     1000
   2640000   56.460644     -462.99363      0             -385.34903      0.091848682  
SHAKE stats (type/ave/delta/count) on step 2650000
Bond:   1   1         1.36862e-06     2000
Angle:  1   109.47    0.000114484     1000
   2650000   56.129896     -456.70701      0             -379.51725     -6.3395877    
SHAKE stats (type/ave/delta/count) on step 2660000
Bond:   1   1         1.50025e-06     2000
Angle:  1   109.47    0.000109958     1000
   2660000   56.672885     -457.48322      0             -379.54674      3.0384803    
SHAKE stats (type/ave/delta/count) on step 2670000
Bond:   1   1         1.21056e-06     2000
Angle:  1   109.47    9.52413e-05     1000
   2670000   56.563766     -460.05059      0             -382.26418     -6.8790717    
SHAKE stats (type/ave/delta/count) on step 2680000
Bond:   1   1         1.12203e-06     2000
Angle:  1   109.47    8.8759e-05      1000
   2680000   57.163122     -463.13653      0             -384.52588     -4.4422675    
SHAKE stats (type/ave/delta/count) on step 2690000
Bond:   1   1         1.30722e-06     2000
Angle:  1   109.47    0.000126857     1000
   2690000   55.979004     -458.60714      0             -381.62489     -1.6770909    
SHAKE stats (type/ave/delta/count) on step 2700000
Bond:   1   1         1.48588e-06     2000
Angle:  1   109.47    0.000112438     1000
   2700000   55.456481     -457.05341      0             -380.78973     -3.2419376    
SHAKE stats (type/ave/delta/count) on step 2710000
Bond:   1   1         1.41762e-06     2000
Angle:  1   109.47    9.28735e-05     1000
   2710000   56.50495      -463.95617      0             -386.25064     -7.8007398    
SHAKE stats (type/ave/delta/count) on step 2720000
Bond:   1   1         1.4582e-06      2000
Angle:  1   109.47    0.000125113     1000
   2720000   56.178932     -457.5899       0             -380.3327      -7.6527821    
SHAKE stats (type/ave/delta/count) on step 2730000
Bond:   1   1         1.27677e-06     2000
Angle:  1   109.47    9.27419e-05     1000
   2730000   57.296418     -454.98588      0             -376.19192     -1.9427177    
SHAKE stats (type/ave/delta/count) on step 2740000
Bond:   1   1         1.56855e-06     2000
Angle:  1   109.47    0.000124875     1000
   2740000   56.263375     -457.01324      0             -379.63992     -2.3241685    
SHAKE stats (type/ave/delta/count) on step 2750000
Bond:   1   1         1.1559e-06      2000
Angle:  1   109.47    9.99615e-05     1000
   2750000   57.150878     -460.45452      0             -381.86071     -4.5694154    
SHAKE stats (type/ave/delta/count) on step 2760000
Bond:   1   1         1.70979e-06     2000
Angle:  1   109.47    0.000125717     1000
   2760000   57.177009     -463.76779      0             -385.13804     -5.0003117    
SHAKE stats (type/ave/delta/count) on step 2770000
Bond:   1   1         1.31491e-06     2000
Angle:  1   109.47    0.000134929     1000
   2770000   55.696823     -456.51051      0             -379.91632     -1.4045362    
SHAKE stats (type/ave/delta/count) on step 2780000
Bond:   1   1         1.00021e-06     2000
Angle:  1   109.47    8.58994e-05     1000
   2780000   56.467993     -458.40031      0             -380.7456      -4.6241459    
SHAKE stats (type/ave/delta/count) on step 2790000
Bond:   1   1         1.52161e-06     2000
Angle:  1   109.47    0.000116        1000
   2790000   55.623823     -456.00235      0             -379.50854     -1.9263207    
SHAKE stats (type/ave/delta/count) on step 2800000
Bond:   1   1         1.24882e-06     2000
Angle:  1   109.47    0.000104        1000
   2800000   57.278377     -460.83547      0             -382.06632      1.4037999    
SHAKE stats (type/ave/delta/count) on step 2810000
Bond:   1   1         1.44107e-06     2000
Angle:  1   109.47    0.000107751     1000
   2810000   56.914942     -461.53146      0             -383.2621      -2.6957345    
SHAKE stats (type/ave/delta/count) on step 2820000
Bond:   1   1         1.12645e-06     2000
Angle:  1   109.47    0.000101341     1000
   2820000   57.782978     -459.40363      0             -379.94055     -3.8825766    
SHAKE stats (type/ave/delta/count) on step 2830000
Bond:   1   1         1.15932e-06     2000
Angle:  1   109.47    0.000118931     1000
   2830000   55.556333     -457.99081      0             -381.58981     -7.7334112    
SHAKE stats (type/ave/delta/count) on step 2840000
Bond:   1   1         1.22852e-06     2000
Angle:  1   109.47    9.40608e-05     1000
   2840000   56.05969      -460.13305      0             -383.03984     -0.51424084   
SHAKE stats (type/ave/delta/count) on step 2850000
Bond:   1   1         1.24886e-06     2000
Angle:  1   109.47    0.000116943     1000
   2850000   55.242906     -460.96699      0             -384.99702     -4.6263675    
SHAKE stats (type/ave/delta/count) on step 2860000
Bond:   1   1         1.67022e-06     2000
Angle:  1   109.47    0.000183516     1000
   2860000   54.174217     -458.9214       0             -384.42109     -7.9672504    
SHAKE stats (type/ave/delta/count) on step 2870000
Bond:   1   1         1.63764e-06     2000
Angle:  1   109.47    0.000108791     1000
   2870000   56.832257     -457.12926      0             -378.97361     -5.2565767    
SHAKE stats (type/ave/delta/count) on step 2880000
Bond:   1   1         1.25109e-06     2000
Angle:  1   109.47    9.65504e-05     1000
   2880000   55.644092     -464.48014      0             -387.95846     -3.962707     
SHAKE stats (type/ave/delta/count) on step 2890000
Bond:   1   1         9.75674e-07     2000
Angle:  1   109.47    8.67581e-05     1000
   2890000   57.318474     -456.54393      0             -377.71964     -3.34764      
SHAKE stats (type/ave/delta/count) on step 2900000
Bond:   1   1         1.61172e-06     2000
Angle:  1   109.47    0.000104613     1000
   2900000   55.352669     -463.34663      0             -387.22572      0.33840239   
SHAKE stats (type/ave/delta/count) on step 2910000
Bond:   1   1         1.29181e-06     2000
Angle:  1   109.47    9.92021e-05     1000
   2910000   57.106591     -459.52398      0             -380.99108     -7.5102126    
SHAKE stats (type/ave/delta/count) on step 2920000
Bond:   1   1         1.18741e-06     2000
Angle:  1   109.47    8.74736e-05     1000
   2920000   57.609766     -462.15263      0             -382.92775     -0.49000827   
SHAKE stats (type/ave/delta/count) on step 2930000
Bond:   1   1         1.32311e-06     2000
Angle:  1   109.47    0.000101598     1000
   2930000   55.675316     -464.77683      0             -388.21221     -3.2081287    
SHAKE stats (type/ave/delta/count) on step 2940000
Bond:   1   1         1.08965e-06     2000
Angle:  1   109.47    8.5945e-05      1000
   2940000   58.115467     -462.22494      0             -382.30462     -5.3561645    
SHAKE stats (type/ave/delta/count) on step 2950000
Bond:   1   1         9.83974e-07     2000
Angle:  1   109.47    9.51037e-05     1000
   2950000   56.150507     -460.04852      0             -382.83042     -5.4408552    
SHAKE stats (type/ave/delta/count) on step 2960000
Bond:   1   1         1.17095e-06     2000
Angle:  1   109.47    9.5814e-05      1000
   2960000   56.083022     -459.94344      0             -382.81814     -6.153204     
SHAKE stats (type/ave/delta/count) on step 2970000
Bond:   1   1         1.22254e-06     2000
Angle:  1   109.47    8.68222e-05     1000
   2970000   55.36803      -460.43804      0             -384.296       -8.1483451    
SHAKE stats (type/ave/delta/count) on step 2980000
Bond:   1   1         1.13072e-06     2000
Angle:  1   109.47    8.287e-05       1000
   2980000   54.697553     -459.92303      0             -384.70303     -5.0608136    
SHAKE stats (type/ave/delta/count) on step 2990000
Bond:   1   1         1.22488e-06     2000
Angle:  1   109.47    0.000113089     1000
   2990000   56.776271     -461.45737      0             -383.37872     -0.11121644   
SHAKE stats (type/ave/delta/count) on step 3000000
Bond:   1   1         1.05454e-06     2000
Angle:  1   109.47    9.28071e-05     1000
   3000000   55.515196     -457.04101      0             -380.69658     -2.6656818    
SHAKE stats (type/ave/delta/count) on step 3010000
Bond:   1   1         1.16245e-06     2000
Angle:  1   109.47    0.000109894     1000
   3010000   55.860942     -460.67591      0             -383.85601     -5.6917348    
SHAKE stats (type/ave/delta/count) on step 3020000
Bond:   1   1         1.34709e-06     2000
Angle:  1   109.47    0.000107044     1000
   3020000   56.311022     -460.62858      0             -383.18974     -7.247197     
SHAKE stats (type/ave/delta/count) on step 3030000
Bond:   1   1         1.19018e-06     2000
Angle:  1   109.47    0.00011193      1000
   3030000   55.524402     -461.83794      0             -385.48085     -5.7764033    
SHAKE stats (type/ave/delta/count) on step 3040000
Bond:   1   1         1.47967e-06     2000
Angle:  1   109.47    0.000102898     1000
   3040000   57.709443     -459.00666      0             -379.64471     -0.5941088    
SHAKE stats (type/ave/delta/count) on step 3050000
Bond:   1   1         1.08639e-06     2000
Angle:  1   109.47    9.92175e-05     1000
   3050000   56.707227     -459.19447      0             -381.21076     -6.2745677    
SHAKE stats (type/ave/delta/count) on step 3060000
Bond:   1   1         1.92017e-06     2000
Angle:  1   109.47    0.000146784     1000
   3060000   54.760095     -460.14374      0             -384.83773     -0.1675363    
SHAKE stats (type/ave/delta/count) on step 3070000
Bond:   1   1         1.00334e-06     2000
Angle:  1   109.47    8.84821e-05     1000
   3070000   55.734706     -457.48804      0             -380.84174     -5.5960247    
SHAKE stats (type/ave/delta/count) on step 3080000
Bond:   1   1         1.38339e-06     2000
Angle:  1   109.47    8.66903e-05     1000
   3080000   55.599642     -457.28429      0             -380.82374      0.62066918   
SHAKE stats (type/ave/delta/count) on step 3090000
Bond:   1   1         1.13863e-06     2000
Angle:  1   109.47    0.000104615     1000
   3090000   55.761065     -458.30126      0             -381.61871     -1.5586311    
SHAKE stats (type/ave/delta/count) on step 3100000
Bond:   1   1         1.42548e-06     2000
Angle:  1   109.47    0.000112366     1000
   3100000   55.719393     -460.19654      0             -383.5713      -6.0870504    
SHAKE stats (type/ave/delta/count) on step 3110000
Bond:   1   1         1.41342e-06     2000
Angle:  1   109.47    0.000100299     1000
   3110000   57.601465     -462.90495      0             -383.69149     -10.547786    
SHAKE stats (type/ave/delta/count) on step 3120000
Bond:   1   1         1.25871e-06     2000
Angle:  1   109.47    0.000101878     1000
   3120000   56.475572     -464.15424      0             -386.48911     -4.5221794    
SHAKE stats (type/ave/delta/count) on step 3130000
Bond:   1   1         1.41138e-06     2000
Angle:  1   109.47    0.00012706      1000
   3130000   57.705729     -458.54733      0             -379.19049      3.8545812    
SHAKE stats (type/ave/delta/count) on step 3140000
Bond:   1   1         9.93399e-07     2000
Angle:  1   109.47    8.78364e-05     1000
   3140000   55.993231     -460.26658      0             -383.26477      4.1684168    
SHAKE stats (type/ave/delta/count) on step 3150000
Bond:   1   1         1.09804e-06     2000
Angle:  1   109.47    0.000105518     1000
   3150000   57.247862     -461.51492      0             -382.78774     -4.2215899    
SHAKE stats (type/ave/delta/count) on step 3160000
Bond:   1   1         1.2277e-06      2000
Angle:  1   109.47    9.14228e-05     1000
   3160000   56.382843     -463.0807       0             -385.54309     -9.6948234    
SHAKE stats (type/ave/delta/count) on step 3170000
Bond:   1   1         1.34169e-06     2000
Angle:  1   109.47    9.93358e-05     1000
   3170000   56.656008     -459.97949      0             -382.06622     -7.9941853    
SHAKE stats (type/ave/delta/count) on step 3180000
Bond:   1   1         1.08254e-06     2000
Angle:  1   109.47    9.66185e-05     1000
   3180000   56.494909     -456.62914      0             -378.93742     -6.6223887    
SHAKE stats (type/ave/delta/count) on step 3190000
Bond:   1   1         1.7031e-06      2000
Angle:  1   109.47    0.000132213     1000
   3190000   58.345306     -460.50063      0             -380.26424     -6.1274087    
SHAKE stats (type/ave/delta/count) on step 3200000
Bond:   1   1         1.24469e-06     2000
Angle:  1   109.47    0.000117094     1000
   3200000   56.54061      -459.63427      0             -381.8797      -5.1568029    
SHAKE stats (type/ave/delta/count) on step 3210000
Bond:   1   1         1.63668e-06     2000
Angle:  1   109.47    0.000122739     1000
   3210000   56.386195     -456.14868      0             -378.60646     -5.7321561    
SHAKE stats (type/ave/delta/count) on step 3220000
Bond:   1   1         1.4471e-06      2000
Angle:  1   109.47    0.000112643     1000
   3220000   56.255883     -460.25983      0             -382.89681     -2.1704442    
SHAKE stats (type/ave/delta/count) on step 3230000
Bond:   1   1         1.23737e-06     2000
Angle:  1   109.47    0.000103302     1000
   3230000   54.842197     -461.19351      0             -385.7746      -1.3437371    
SHAKE stats (type/ave/delta/count) on step 3240000
Bond:   1   1         1.27821e-06     2000
Angle:  1   109.47    9.76126e-05     1000
   3240000   58.083405     -456.85894      0             -376.98272     -5.3792954    
SHAKE stats (type/ave/delta/count) on step 3250000
Bond:   1   1         1.93092e-06     2000
Angle:  1   109.47    0.000156685     1000
   3250000   56.607179     -457.34719      0             -379.50108     -4.2312454    
SHAKE stats (type/ave/delta/count) on step 3260000
Bond:   1   1         1.15828e-06     2000
Angle:  1   109.47    8.61886e-05     1000
   3260000   56.283754     -456.29464      0             -378.89329     -6.0118204    
SHAKE stats (type/ave/delta/count) on step 3270000
Bond:   1   1         1.42895e-06     2000
Angle:  1   109.47    0.000101615     1000
   3270000   56.173339     -456.39004      0             -379.14053     -7.272135     
SHAKE stats (type/ave/delta/count) on step 3280000
Bond:   1   1         1.147e-06       2000
Angle:  1   109.47    8.66874e-05     1000
   3280000   56.141839     -460.11876      0             -382.91258     -4.9583786    
SHAKE stats (type/ave/delta/count) on step 3290000
Bond:   1   1         1.24756e-06     2000
Angle:  1   109.47    8.76083e-05     1000
   3290000   56.228755     -458.77899      0             -381.45328     -3.01573      
SHAKE stats (type/ave/delta/count) on step 3300000
Bond:   1   1         1.05439e-06     2000
Angle:  1   109.47    8.51721e-05     1000
[...]
Bond:   1   1         1.08049e-06     2000
Angle:  1   109.47    8.87594e-05     1000
   9220000   54.918301     -462.22411      0             -386.70053     -0.30224094   
SHAKE stats (type/ave/delta/count) on step 9230000
Bond:   1   1         1.01699e-06     2000
Angle:  1   109.47    9.23329e-05     1000
   9230000   55.948949     -457.95682      0             -381.0159      -15.438983    
SHAKE stats (type/ave/delta/count) on step 9240000
Bond:   1   1         1.35884e-06     2000
Angle:  1   109.47    0.000111193     1000
   9240000   55.364608     -461.67128      0             -385.53394      4.8729082    
SHAKE stats (type/ave/delta/count) on step 9250000
Bond:   1   1         2.06055e-06     2000
Angle:  1   109.47    0.000156154     1000
   9250000   56.842628     -458.60514      0             -380.43523     -9.4862247    
SHAKE stats (type/ave/delta/count) on step 9260000
Bond:   1   1         1.10437e-06     2000
Angle:  1   109.47    8.62972e-05     1000
   9260000   56.122625     -456.68197      0             -379.50221     -6.1245554    
SHAKE stats (type/ave/delta/count) on step 9270000
Bond:   1   1         1.43505e-06     2000
Angle:  1   109.47    0.000119607     1000
   9270000   56.960613     -458.68685      0             -380.35469     -6.0498185    
SHAKE stats (type/ave/delta/count) on step 9280000
Bond:   1   1         1.18016e-06     2000
Angle:  1   109.47    9.55198e-05     1000
   9280000   55.166724     -456.66374      0             -380.79853     -6.0172032    
SHAKE stats (type/ave/delta/count) on step 9290000
Bond:   1   1         1.25902e-06     2000
Angle:  1   109.47    9.14579e-05     1000
   9290000   56.487359     -462.20704      0             -384.5257       3.4616437    
SHAKE stats (type/ave/delta/count) on step 9300000
Bond:   1   1         1.52162e-06     2000
Angle:  1   109.47    0.000132289     1000
   9300000   55.915524     -461.2541       0             -384.35915     -6.447855     
SHAKE stats (type/ave/delta/count) on step 9310000
Bond:   1   1         1.61847e-06     2000
Angle:  1   109.47    0.000121971     1000
   9310000   59.328985     -461.02642      0             -379.43727     -0.90472542   
SHAKE stats (type/ave/delta/count) on step 9320000
Bond:   1   1         1.39256e-06     2000
Angle:  1   109.47    0.000107197     1000
   9320000   55.948595     -454.9555       0             -378.01507     -6.546889     
SHAKE stats (type/ave/delta/count) on step 9330000
Bond:   1   1         1.20261e-06     2000
Angle:  1   109.47    0.00010852      1000
   9330000   57.052414     -456.3259       0             -377.86749      0.35551657   
SHAKE stats (type/ave/delta/count) on step 9340000
Bond:   1   1         1.0739e-06      2000
Angle:  1   109.47    9.30736e-05     1000
   9340000   56.376858     -456.23747      0             -378.70809     -9.2761747    
SHAKE stats (type/ave/delta/count) on step 9350000
Bond:   1   1         1.74325e-06     2000
Angle:  1   109.47    0.000140778     1000
   9350000   55.809653     -456.39583      0             -379.64647     -4.4541799    
SHAKE stats (type/ave/delta/count) on step 9360000
Bond:   1   1         1.16641e-06     2000
Angle:  1   109.47    8.55544e-05     1000
   9360000   58.05067      -459.96619      0             -380.13498     -2.1283387    
SHAKE stats (type/ave/delta/count) on step 9370000
Bond:   1   1         1.39311e-06     2000
Angle:  1   109.47    0.000119246     1000
   9370000   56.567834     -458.54743      0             -380.75542     -6.917208     
SHAKE stats (type/ave/delta/count) on step 9380000
Bond:   1   1         1.38837e-06     2000
Angle:  1   109.47    9.40598e-05     1000
   9380000   55.871985     -458.8818       0             -382.04672     -8.5175262    
SHAKE stats (type/ave/delta/count) on step 9390000
Bond:   1   1         1.45301e-06     2000
Angle:  1   109.47    0.000122339     1000
   9390000   55.780992     -457.22307      0             -380.51313     -4.0685869    
SHAKE stats (type/ave/delta/count) on step 9400000
Bond:   1   1         1.25359e-06     2000
Angle:  1   109.47    0.000102258     1000
   9400000   54.95108      -454.46672      0             -378.89807     -9.1429927    
SHAKE stats (type/ave/delta/count) on step 9410000
Bond:   1   1         1.14796e-06     2000
Angle:  1   109.47    9.0594e-05      1000
   9410000   55.69978      -458.91691      0             -382.31864     -2.6800266    
SHAKE stats (type/ave/delta/count) on step 9420000
Bond:   1   1         1.32621e-06     2000
Angle:  1   109.47    8.78955e-05     1000
   9420000   56.278538     -462.41518      0             -385.02101      4.9497565    
SHAKE stats (type/ave/delta/count) on step 9430000
Bond:   1   1         1.16132e-06     2000
Angle:  1   109.47    9.63289e-05     1000
   9430000   57.571541     -458.04097      0             -378.86866     -8.1443191    
SHAKE stats (type/ave/delta/count) on step 9440000
Bond:   1   1         1.24852e-06     2000
Angle:  1   109.47    9.02173e-05     1000
   9440000   56.636749     -457.60617      0             -379.71939     -3.4754077    
SHAKE stats (type/ave/delta/count) on step 9450000
Bond:   1   1         1.30621e-06     2000
Angle:  1   109.47    0.000118528     1000
   9450000   56.606337     -455.91958      0             -378.07462     -2.4219852    
SHAKE stats (type/ave/delta/count) on step 9460000
Bond:   1   1         1.36821e-06     2000
Angle:  1   109.47    8.77677e-05     1000
   9460000   57.723091     -458.06086      0             -378.68014     -7.2193132    
SHAKE stats (type/ave/delta/count) on step 9470000
Bond:   1   1         1.02626e-06     2000
Angle:  1   109.47    9.36166e-05     1000
   9470000   57.820152     -455.7233       0             -376.20911     -1.5397832    
SHAKE stats (type/ave/delta/count) on step 9480000
Bond:   1   1         1.09045e-06     2000
Angle:  1   109.47    9.25882e-05     1000
   9480000   56.547312     -457.20255      0             -379.43876      0.63308638   
SHAKE stats (type/ave/delta/count) on step 9490000
Bond:   1   1         1.19364e-06     2000
Angle:  1   109.47    9.32556e-05     1000
   9490000   57.150558     -459.35893      0             -380.76555     -7.0488063    
SHAKE stats (type/ave/delta/count) on step 9500000
Bond:   1   1         1.24801e-06     2000
Angle:  1   109.47    9.36652e-05     1000
   9500000   55.755207     -458.30708      0             -381.63259     -1.45051      
SHAKE stats (type/ave/delta/count) on step 9510000
Bond:   1   1         9.83053e-07     2000
Angle:  1   109.47    9.21479e-05     1000
   9510000   54.878982     -462.92764      0             -387.45814      1.8033136    
SHAKE stats (type/ave/delta/count) on step 9520000
Bond:   1   1         1.17648e-06     2000
Angle:  1   109.47    9.81723e-05     1000
   9520000   57.777148     -456.57313      0             -377.11808     -2.0363877    
SHAKE stats (type/ave/delta/count) on step 9530000
Bond:   1   1         1.68618e-06     2000
Angle:  1   109.47    0.000115289     1000
   9530000   56.562867     -462.55784      0             -384.77266     -8.7620678    
SHAKE stats (type/ave/delta/count) on step 9540000
Bond:   1   1         1.06713e-06     2000
Angle:  1   109.47    8.93013e-05     1000
   9540000   55.858398     -459.94387      0             -383.12748     -9.0732732    
SHAKE stats (type/ave/delta/count) on step 9550000
Bond:   1   1         1.55937e-06     2000
Angle:  1   109.47    0.000112415     1000
   9550000   56.071652     -463.04142      0             -385.93176      0.036332902  
SHAKE stats (type/ave/delta/count) on step 9560000
Bond:   1   1         1.40431e-06     2000
Angle:  1   109.47    0.000102548     1000
   9560000   57.15091      -463.57578      0             -384.98192     -5.6902422    
SHAKE stats (type/ave/delta/count) on step 9570000
Bond:   1   1         1.29474e-06     2000
Angle:  1   109.47    9.53549e-05     1000
   9570000   53.174405     -461.79628      0             -388.6709      -0.90319864   
SHAKE stats (type/ave/delta/count) on step 9580000
Bond:   1   1         1.14822e-06     2000
Angle:  1   109.47    9.42139e-05     1000
   9580000   56.514042     -457.86151      0             -380.14347     -2.0965869    
SHAKE stats (type/ave/delta/count) on step 9590000
Bond:   1   1         1.05657e-06     2000
Angle:  1   109.47    9.58513e-05     1000
   9590000   57.348921     -462.75226      0             -383.8861      -2.3453784    
SHAKE stats (type/ave/delta/count) on step 9600000
Bond:   1   1         1.7743e-06      2000
Angle:  1   109.47    0.000102943     1000
   9600000   54.589632     -460.92835      0             -385.85676     -5.8323074    
SHAKE stats (type/ave/delta/count) on step 9610000
Bond:   1   1         1.40786e-06     2000
Angle:  1   109.47    0.000123492     1000
   9610000   56.946688     -458.94918      0             -380.63617     -7.5291105    
SHAKE stats (type/ave/delta/count) on step 9620000
Bond:   1   1         1.19295e-06     2000
Angle:  1   109.47    0.000116816     1000
   9620000   57.925515     -458.00574      0             -378.34665     -7.7182815    
SHAKE stats (type/ave/delta/count) on step 9630000
Bond:   1   1         1.32495e-06     2000
Angle:  1   109.47    9.71347e-05     1000
   9630000   55.486617     -457.72251      0             -381.41739     -3.0710326    
SHAKE stats (type/ave/delta/count) on step 9640000
Bond:   1   1         9.22539e-07     2000
Angle:  1   109.47    8.83931e-05     1000
   9640000   58.420837     -460.28756      0             -379.9473       5.5705015    
SHAKE stats (type/ave/delta/count) on step 9650000
Bond:   1   1         1.16145e-06     2000
Angle:  1   109.47    8.29685e-05     1000
   9650000   55.865233     -460.92011      0             -384.09431      0.46014072   
SHAKE stats (type/ave/delta/count) on step 9660000
Bond:   1   1         1.59655e-06     2000
Angle:  1   109.47    0.000102937     1000
   9660000   55.25575      -459.46627      0             -383.47864      1.1193997    
SHAKE stats (type/ave/delta/count) on step 9670000
Bond:   1   1         1.19082e-06     2000
Angle:  1   109.47    0.000114298     1000
   9670000   56.628181     -458.64324      0             -380.76824     -2.8671473    
SHAKE stats (type/ave/delta/count) on step 9680000
Bond:   1   1         1.2126e-06      2000
Angle:  1   109.47    0.000100363     1000
   9680000   55.685298     -460.8732       0             -384.29485     -6.2436452    
SHAKE stats (type/ave/delta/count) on step 9690000
Bond:   1   1         1.91903e-06     2000
Angle:  1   109.47    0.000136706     1000
   9690000   56.237378     -461.0137       0             -383.67613     -0.4218345    
SHAKE stats (type/ave/delta/count) on step 9700000
Bond:   1   1         1.37061e-06     2000
Angle:  1   109.47    0.000101985     1000
   9700000   56.525201     -459.63778      0             -381.9044      -0.86069494   
SHAKE stats (type/ave/delta/count) on step 9710000
Bond:   1   1         1.30288e-06     2000
Angle:  1   109.47    9.16458e-05     1000
   9710000   54.825195     -460.17354      0             -384.77801     -1.7855053    
SHAKE stats (type/ave/delta/count) on step 9720000
Bond:   1   1         1.44459e-06     2000
Angle:  1   109.47    0.00012553      1000
   9720000   57.230823     -460.90204      0             -382.19829     -8.0125159    
SHAKE stats (type/ave/delta/count) on step 9730000
Bond:   1   1         1.01699e-06     2000
Angle:  1   109.47    8.67986e-05     1000
   9730000   55.759536     -464.17841      0             -387.49797     -2.8821935    
SHAKE stats (type/ave/delta/count) on step 9740000
Bond:   1   1         1.5501e-06      2000
Angle:  1   109.47    9.3035e-05      1000
   9740000   55.067131     -460.68551      0             -384.95726     -2.5841292    
SHAKE stats (type/ave/delta/count) on step 9750000
Bond:   1   1         1.41854e-06     2000
Angle:  1   109.47    9.82328e-05     1000
   9750000   58.215359     -456.6119       0             -376.55421     -0.42260972   
SHAKE stats (type/ave/delta/count) on step 9760000
Bond:   1   1         1.13521e-06     2000
Angle:  1   109.47    9.24441e-05     1000
   9760000   57.426258     -457.80318      0             -378.83066     -1.517669     
SHAKE stats (type/ave/delta/count) on step 9770000
Bond:   1   1         1.37146e-06     2000
Angle:  1   109.47    0.000110501     1000
   9770000   56.795386     -460.88715      0             -382.78221     -3.5671961    
SHAKE stats (type/ave/delta/count) on step 9780000
Bond:   1   1         1.23146e-06     2000
Angle:  1   109.47    0.000107023     1000
   9780000   55.701505     -456.28027      0             -379.67963     -3.4805978    
SHAKE stats (type/ave/delta/count) on step 9790000
Bond:   1   1         1.71276e-06     2000
Angle:  1   109.47    0.000142611     1000
   9790000   57.746573     -458.49535      0             -379.08234      1.0690675    
SHAKE stats (type/ave/delta/count) on step 9800000
Bond:   1   1         2.00447e-06     2000
Angle:  1   109.47    0.000170674     1000
   9800000   55.593688     -459.40133      0             -382.94896     -8.5537887    
SHAKE stats (type/ave/delta/count) on step 9810000
Bond:   1   1         1.23608e-06     2000
Angle:  1   109.47    9.66937e-05     1000
   9810000   55.687269     -456.75748      0             -380.17642     -4.1154718    
SHAKE stats (type/ave/delta/count) on step 9820000
Bond:   1   1         1.08197e-06     2000
Angle:  1   109.47    8.68217e-05     1000
   9820000   54.700788     -456.40293      0             -381.17848      5.5066106    
SHAKE stats (type/ave/delta/count) on step 9830000
Bond:   1   1         1.18025e-06     2000
Angle:  1   109.47    0.000104468     1000
   9830000   55.287354     -456.78462      0             -380.75352     -7.234288     
SHAKE stats (type/ave/delta/count) on step 9840000
Bond:   1   1         1.35982e-06     2000
Angle:  1   109.47    8.64425e-05     1000
   9840000   55.368357     -462.19002      0             -386.04753     -5.5397485    
SHAKE stats (type/ave/delta/count) on step 9850000
Bond:   1   1         1.12209e-06     2000
Angle:  1   109.47    9.96246e-05     1000
   9850000   58.254922     -458.12546      0             -378.01337     -3.9419851    
SHAKE stats (type/ave/delta/count) on step 9860000
Bond:   1   1         1.16054e-06     2000
Angle:  1   109.47    0.000104858     1000
   9860000   56.013479     -462.21107      0             -385.18141     -3.0300294    
SHAKE stats (type/ave/delta/count) on step 9870000
Bond:   1   1         1.20877e-06     2000
Angle:  1   109.47    9.55238e-05     1000
   9870000   54.317116     -459.31541      0             -384.61858      1.7719747    
SHAKE stats (type/ave/delta/count) on step 9880000
Bond:   1   1         1.56834e-06     2000
Angle:  1   109.47    0.00014102      1000
   9880000   57.791044     -456.79668      0             -377.32251     -1.9023215    
SHAKE stats (type/ave/delta/count) on step 9890000
Bond:   1   1         1.13269e-06     2000
Angle:  1   109.47    0.000100224     1000
   9890000   57.453705     -456.53905      0             -377.52879     -5.1602773    
SHAKE stats (type/ave/delta/count) on step 9900000
Bond:   1   1         1.05242e-06     2000
Angle:  1   109.47    8.55842e-05     1000
   9900000   55.102064     -464.32144      0             -388.54515      1.4617486    
SHAKE stats (type/ave/delta/count) on step 9910000
Bond:   1   1         1.15232e-06     2000
Angle:  1   109.47    8.93814e-05     1000
   9910000   55.48603      -454.44519      0             -378.14087     -4.2227014    
SHAKE stats (type/ave/delta/count) on step 9920000
Bond:   1   1         1.09515e-06     2000
Angle:  1   109.47    0.000111372     1000
   9920000   57.522419     -460.15164      0             -381.04689      3.2325604    
SHAKE stats (type/ave/delta/count) on step 9930000
Bond:   1   1         1.26646e-06     2000
Angle:  1   109.47    9.57395e-05     1000
   9930000   55.769001     -457.8706       0             -381.17715     -4.0689222    
SHAKE stats (type/ave/delta/count) on step 9940000
Bond:   1   1         1.43088e-06     2000
Angle:  1   109.47    0.000124869     1000
   9940000   56.930889     -462.23357      0             -383.94229      0.44939113   
SHAKE stats (type/ave/delta/count) on step 9950000
Bond:   1   1         1.29014e-06     2000
Angle:  1   109.47    9.82035e-05     1000
   9950000   56.042717     -455.45678      0             -378.38691     -0.71092102   
SHAKE stats (type/ave/delta/count) on step 9960000
Bond:   1   1         1.50741e-06     2000
Angle:  1   109.47    0.000124304     1000
   9960000   60.376721     -457.78328      0             -374.75329     -7.062681     
SHAKE stats (type/ave/delta/count) on step 9970000
Bond:   1   1         1.10231e-06     2000
Angle:  1   109.47    9.00097e-05     1000
   9970000   57.016146     -462.56278      0             -384.15425     -8.3631749    
SHAKE stats (type/ave/delta/count) on step 9980000
Bond:   1   1         1.45116e-06     2000
Angle:  1   109.47    0.000110519     1000
   9980000   54.396583     -460.49148      0             -385.68538     -9.0573848    
SHAKE stats (type/ave/delta/count) on step 9990000
Bond:   1   1         1.22407e-06     2000
Angle:  1   109.47    9.27667e-05     1000
   9990000   55.302604     -455.32745      0             -379.27538     -6.0651568    
SHAKE stats (type/ave/delta/count) on step 10000000
Bond:   1   1         1.37802e-06     2000
Angle:  1   109.47    0.000115206     1000
  10000000   54.530852     -458.23639      0             -383.24564     -4.5163565    
Loop time of 14355.1 on 256 procs for 2000000 steps with 11640 atoms

Performance: 12.038 ns/day, 1.994 hours/ns, 139.323 timesteps/s, 1.622 Matom-step/s
100.0% CPU use with 256 MPI tasks x 1 OpenMP threads

MPI task timing breakdown:
Section |  min time  |  avg time  |  max time  |%varavg| %total
---------------------------------------------------------------
Pair    | 0.19254    | 155.87     | 3641.9     |4007.6 |  1.09
Bond    | 0.1634     | 0.28932    | 0.96326    |  15.9 |  0.00
Kspace  | 9109.3     | 12402      | 12609      | 419.9 | 86.40
Neigh   | 575.28     | 587.31     | 594.1      |  26.1 |  4.09
Comm    | 5.6143     | 123.7      | 576.17     |1515.7 |  0.86
Output  | 32.072     | 55.414     | 79.787     | 176.1 |  0.39
Modify  | 460.73     | 964.49     | 1118.8     | 542.5 |  6.72
Other   |            | 65.65      |            |       |  0.46

Nlocal:        45.4688 ave         989 max           0 min
Histogram: 223 1 26 0 2 0 1 1 0 2
Nghost:        269.594 ave        2130 max           0 min
Histogram: 186 0 1 25 28 2 6 0 4 4
Neighs:        4985.45 ave      206693 max           0 min
Histogram: 248 2 2 0 0 1 1 0 0 2

Total # of neighbors = 1276275
Ave neighs/atom = 109.64562
Ave special neighs/atom = 0.51546392
Neighbor list builds = 94714
Dangerous builds = 0
undump DUMP4
write_restart nvt_prod.restart.*
System init for write_restart ...
PPPM initialization ...
  using 12-bit tables for long-range coulomb (src/kspace.cpp:342)
  G vector (1/distance) = 0.27466065
  grid = 72 72 72
  stencil order = 5
  estimated absolute RMS force accuracy = 0.00016054877
  estimated relative force accuracy = 1.1149495e-05
  using double precision KISS FFT
  3d grid and FFT values/proc = 4508 1800
Generated 0 of 3 mixed pair_coeff terms from geometric mixing rule
write_data nvt_prod_final.lammps-data pair ij
System init for write_data ...
PPPM initialization ...
  using 12-bit tables for long-range coulomb (src/kspace.cpp:342)
  G vector (1/distance) = 0.27466065
  grid = 72 72 72
  stencil order = 5
  estimated absolute RMS force accuracy = 0.00016054877
  estimated relative force accuracy = 1.1149495e-05
  using double precision KISS FFT
  3d grid and FFT values/proc = 4508 1800
Generated 0 of 3 mixed pair_coeff terms from geometric mixing rule

Total wall time: 19:48:49
