LAMMPS data file via write_data, version 4 Feb 2025, timestep = 10000000, units = metal

11640 atoms
3 atom types
2000 bonds
1 bond types
1000 angles
1 angle types

0 154.00799999999998 xlo xhi
0 148.19426709559315 ylo yhi
0 151.07316997686289 zlo zhi

Masses

1 12.01099999691024
2 1.007999999740698
3 15.99899999588435

PairIJ Coeffs # lj/cut/coul/long

1 1 0 1 9
1 2 0 1 9
1 3 0.004551 3.367 9
2 2 0 1 9
2 3 0 1 9
3 3 0.006735 3.166 9

Bond Coeffs # zero

1 1

Angle Coeffs # zero

1 109.47

Atoms # full

1 0 1 0 0 0 0 0 0 0
2 0 1 0 1.426 0 0 0 0 0
5 0 1 0 0 2.4699044515932185 0 0 0 0
6 0 1 0 1.426 2.4699044515932185 0 0 0 0
7 0 1 0 2.139 1.2349522257966092 0 0 0 0
8 0 1 0 3.5649999999999995 1.2349522257966092 0 0 0 0
9 0 1 0 0 4.939808903186437 0 0 0 0
10 0 1 0 1.426 4.939808903186437 0 0 0 0
11 0 1 0 2.139 3.7048566773898277 0 0 0 0
12 0 1 0 3.5649999999999995 3.7048566773898277 0 0 0 0
15 0 1 0 2.139 6.174761128983047 0 0 0 0
16 0 1 0 3.5649999999999995 6.174761128983047 0 0 0 0
241 0 1 0 4.278 0 0 0 0 0
242 0 1 0 5.704 0 0 0 0 0
245 0 1 0 4.278 2.4699044515932185 0 0 0 0
246 0 1 0 5.704 2.4699044515932185 0 0 0 0
249 0 1 0 4.278 4.939808903186437 0 0 0 0
250 0 1 0 5.704 4.939808903186437 0 0 0 0
247 0 1 0 6.417 1.2349522257966092 0 0 0 0
248 0 1 0 7.843 1.2349522257966092 0 0 0 0
251 0 1 0 6.417 3.7048566773898277 0 0 0 0
252 0 1 0 7.843 3.7048566773898277 0 0 0 0
255 0 1 0 6.417 6.174761128983047 0 0 0 0
256 0 1 0 7.843 6.174761128983047 0 0 0 0
481 0 1 0 8.556 0 0 0 0 0
482 0 1 0 9.982000000000001 0 0 0 0 0
485 0 1 0 8.556 2.4699044515932185 0 0 0 0
486 0 1 0 9.982000000000001 2.4699044515932185 0 0 0 0
487 0 1 0 10.694999999999999 1.2349522257966092 0 0 0 0
488 0 1 0 12.120999999999999 1.2349522257966092 0 0 0 0
489 0 1 0 8.556 4.939808903186437 0 0 0 0
490 0 1 0 9.982000000000001 4.939808903186437 0 0 0 0
491 0 1 0 10.694999999999999 3.7048566773898277 0 0 0 0
492 0 1 0 12.120999999999999 3.7048566773898277 0 0 0 0
495 0 1 0 10.694999999999999 6.174761128983047 0 0 0 0
496 0 1 0 12.120999999999999 6.174761128983047 0 0 0 0
721 0 1 0 12.834 0 0 0 0 0
722 0 1 0 14.26 0 0 0 0 0
725 0 1 0 12.834 2.4699044515932185 0 0 0 0
726 0 1 0 14.26 2.4699044515932185 0 0 0 0
727 0 1 0 14.972999999999999 1.2349522257966092 0 0 0 0
728 0 1 0 16.398999999999997 1.2349522257966092 0 0 0 0
729 0 1 0 12.834 4.939808903186437 0 0 0 0
730 0 1 0 14.26 4.939808903186437 0 0 0 0
731 0 1 0 14.972999999999999 3.7048566773898277 0 0 0 0
732 0 1 0 16.398999999999997 3.7048566773898277 0 0 0 0
735 0 1 0 14.972999999999999 6.174761128983047 0 0 0 0
736 0 1 0 16.398999999999997 6.174761128983047 0 0 0 0
961 0 1 0 17.112 0 0 0 0 0
962 0 1 0 18.537999999999997 0 0 0 0 0
965 0 1 0 17.112 2.4699044515932185 0 0 0 0
966 0 1 0 18.537999999999997 2.4699044515932185 0 0 0 0
969 0 1 0 17.112 4.939808903186437 0 0 0 0
970 0 1 0 18.537999999999997 4.939808903186437 0 0 0 0
13 0 1 0 0 7.409713354779655 0 0 0 0
14 0 1 0 1.426 7.409713354779655 0 0 0 0
17 0 1 0 0 9.879617806372874 0 0 0 0
18 0 1 0 1.426 9.879617806372874 0 0 0 0
19 0 1 0 2.139 8.644665580576266 0 0 0 0
20 0 1 0 3.5649999999999995 8.644665580576266 0 0 0 0
23 0 1 0 2.139 11.114570032169485 0 0 0 0
24 0 1 0 3.5649999999999995 11.114570032169485 0 0 0 0
253 0 1 0 4.278 7.409713354779655 0 0 0 0
254 0 1 0 5.704 7.409713354779655 0 0 0 0
257 0 1 0 4.278 9.879617806372874 0 0 0 0
258 0 1 0 5.704 9.879617806372874 0 0 0 0
259 0 1 0 6.417 8.644665580576266 0 0 0 0
260 0 1 0 7.843 8.644665580576266 0 0 0 0
263 0 1 0 6.417 11.114570032169485 0 0 0 0
264 0 1 0 7.843 11.114570032169485 0 0 0 0
493 0 1 0 8.556 7.409713354779655 0 0 0 0
494 0 1 0 9.982000000000001 7.409713354779655 0 0 0 0
497 0 1 0 8.556 9.879617806372874 0 0 0 0
498 0 1 0 9.982000000000001 9.879617806372874 0 0 0 0
499 0 1 0 10.694999999999999 8.644665580576266 0 0 0 0
500 0 1 0 12.120999999999999 8.644665580576266 0 0 0 0
503 0 1 0 10.694999999999999 11.114570032169485 0 0 0 0
504 0 1 0 12.120999999999999 11.114570032169485 0 0 0 0
733 0 1 0 12.834 7.409713354779655 0 0 0 0
734 0 1 0 14.26 7.409713354779655 0 0 0 0
737 0 1 0 12.834 9.879617806372874 0 0 0 0
738 0 1 0 14.26 9.879617806372874 0 0 0 0
739 0 1 0 14.972999999999999 8.644665580576266 0 0 0 0
740 0 1 0 16.398999999999997 8.644665580576266 0 0 0 0
743 0 1 0 14.972999999999999 11.114570032169485 0 0 0 0
744 0 1 0 16.398999999999997 11.114570032169485 0 0 0 0
973 0 1 0 17.112 7.409713354779655 0 0 0 0
974 0 1 0 18.537999999999997 7.409713354779655 0 0 0 0
977 0 1 0 17.112 9.879617806372874 0 0 0 0
978 0 1 0 18.537999999999997 9.879617806372874 0 0 0 0
21 0 1 0 0 12.349522257966095 0 0 0 0
22 0 1 0 1.426 12.349522257966095 0 0 0 0
25 0 1 0 0 14.81942670955931 0 0 0 0
26 0 1 0 1.426 14.81942670955931 0 0 0 0
27 0 1 0 2.139 13.584474483762703 0 0 0 0
28 0 1 0 3.5649999999999995 13.584474483762703 0 0 0 0
29 0 1 0 0 17.289331161152532 0 0 0 0
30 0 1 0 1.426 17.289331161152532 0 0 0 0
31 0 1 0 2.139 16.054378935355924 0 0 0 0
32 0 1 0 3.5649999999999995 16.054378935355924 0 0 0 0
261 0 1 0 4.278 12.349522257966095 0 0 0 0
262 0 1 0 5.704 12.349522257966095 0 0 0 0
265 0 1 0 4.278 14.81942670955931 0 0 0 0
266 0 1 0 5.704 14.81942670955931 0 0 0 0
269 0 1 0 4.278 17.289331161152532 0 0 0 0
270 0 1 0 5.704 17.289331161152532 0 0 0 0
267 0 1 0 6.417 13.584474483762703 0 0 0 0
268 0 1 0 7.843 13.584474483762703 0 0 0 0
271 0 1 0 6.417 16.054378935355924 0 0 0 0
272 0 1 0 7.843 16.054378935355924 0 0 0 0
501 0 1 0 8.556 12.349522257966095 0 0 0 0
502 0 1 0 9.982000000000001 12.349522257966095 0 0 0 0
505 0 1 0 8.556 14.81942670955931 0 0 0 0
506 0 1 0 9.982000000000001 14.81942670955931 0 0 0 0
507 0 1 0 10.694999999999999 13.584474483762703 0 0 0 0
508 0 1 0 12.120999999999999 13.584474483762703 0 0 0 0
509 0 1 0 8.556 17.289331161152532 0 0 0 0
510 0 1 0 9.982000000000001 17.289331161152532 0 0 0 0
511 0 1 0 10.694999999999999 16.054378935355924 0 0 0 0
512 0 1 0 12.120999999999999 16.054378935355924 0 0 0 0
741 0 1 0 12.834 12.349522257966095 0 0 0 0
742 0 1 0 14.26 12.349522257966095 0 0 0 0
745 0 1 0 12.834 14.81942670955931 0 0 0 0
746 0 1 0 14.26 14.81942670955931 0 0 0 0
747 0 1 0 14.972999999999999 13.584474483762703 0 0 0 0
748 0 1 0 16.398999999999997 13.584474483762703 0 0 0 0
749 0 1 0 12.834 17.289331161152532 0 0 0 0
750 0 1 0 14.26 17.289331161152532 0 0 0 0
751 0 1 0 14.972999999999999 16.054378935355924 0 0 0 0
752 0 1 0 16.398999999999997 16.054378935355924 0 0 0 0
981 0 1 0 17.112 12.349522257966095 0 0 0 0
982 0 1 0 18.537999999999997 12.349522257966095 0 0 0 0
985 0 1 0 17.112 14.81942670955931 0 0 0 0
986 0 1 0 18.537999999999997 14.81942670955931 0 0 0 0
989 0 1 0 17.112 17.289331161152532 0 0 0 0
990 0 1 0 18.537999999999997 17.289331161152532 0 0 0 0
33 0 1 0 0 19.759235612745748 0 0 0 0
34 0 1 0 1.426 19.759235612745748 0 0 0 0
35 0 1 0 2.139 18.524283386949143 0 0 0 0
36 0 1 0 3.5649999999999995 18.524283386949143 0 0 0 0
37 0 1 0 0 22.22914006433897 0 0 0 0
38 0 1 0 1.426 22.22914006433897 0 0 0 0
39 0 1 0 2.139 20.994187838542363 0 0 0 0
40 0 1 0 3.5649999999999995 20.994187838542363 0 0 0 0
43 0 1 0 2.139 23.464092290135582 0 0 0 0
44 0 1 0 3.5649999999999995 23.464092290135582 0 0 0 0
273 0 1 0 4.278 19.759235612745748 0 0 0 0
274 0 1 0 5.704 19.759235612745748 0 0 0 0
277 0 1 0 4.278 22.22914006433897 0 0 0 0
278 0 1 0 5.704 22.22914006433897 0 0 0 0
275 0 1 0 6.417 18.524283386949143 0 0 0 0
276 0 1 0 7.843 18.524283386949143 0 0 0 0
279 0 1 0 6.417 20.994187838542363 0 0 0 0
280 0 1 0 7.843 20.994187838542363 0 0 0 0
283 0 1 0 6.417 23.464092290135582 0 0 0 0
284 0 1 0 7.843 23.464092290135582 0 0 0 0
513 0 1 0 8.556 19.759235612745748 0 0 0 0
514 0 1 0 9.982000000000001 19.759235612745748 0 0 0 0
515 0 1 0 10.694999999999999 18.524283386949143 0 0 0 0
516 0 1 0 12.120999999999999 18.524283386949143 0 0 0 0
517 0 1 0 8.556 22.22914006433897 0 0 0 0
518 0 1 0 9.982000000000001 22.22914006433897 0 0 0 0
519 0 1 0 10.694999999999999 20.994187838542363 0 0 0 0
520 0 1 0 12.120999999999999 20.994187838542363 0 0 0 0
523 0 1 0 10.694999999999999 23.464092290135582 0 0 0 0
524 0 1 0 12.120999999999999 23.464092290135582 0 0 0 0
753 0 1 0 12.834 19.759235612745748 0 0 0 0
754 0 1 0 14.26 19.759235612745748 0 0 0 0
755 0 1 0 14.972999999999999 18.524283386949143 0 0 0 0
756 0 1 0 16.398999999999997 18.524283386949143 0 0 0 0
757 0 1 0 12.834 22.22914006433897 0 0 0 0
758 0 1 0 14.26 22.22914006433897 0 0 0 0
759 0 1 0 14.972999999999999 20.994187838542363 0 0 0 0
760 0 1 0 16.398999999999997 20.994187838542363 0 0 0 0
763 0 1 0 14.972999999999999 23.464092290135582 0 0 0 0
764 0 1 0 16.398999999999997 23.464092290135582 0 0 0 0
993 0 1 0 17.112 19.759235612745748 0 0 0 0
994 0 1 0 18.537999999999997 19.759235612745748 0 0 0 0
997 0 1 0 17.112 22.22914006433897 0 0 0 0
998 0 1 0 18.537999999999997 22.22914006433897 0 0 0 0
41 0 1 0 0 24.69904451593219 0 0 0 0
42 0 1 0 1.426 24.69904451593219 0 0 0 0
45 0 1 0 0 27.16894896752541 0 0 0 0
46 0 1 0 1.426 27.16894896752541 0 0 0 0
47 0 1 0 2.139 25.933996741728798 0 0 0 0
48 0 1 0 3.5649999999999995 25.933996741728798 0 0 0 0
49 0 1 0 0 29.63885341911862 0 0 0 0
50 0 1 0 1.426 29.63885341911862 0 0 0 0
51 0 1 0 2.139 28.403901193322017 0 0 0 0
52 0 1 0 3.5649999999999995 28.403901193322017 0 0 0 0
281 0 1 0 4.278 24.69904451593219 0 0 0 0
282 0 1 0 5.704 24.69904451593219 0 0 0 0
285 0 1 0 4.278 27.16894896752541 0 0 0 0
286 0 1 0 5.704 27.16894896752541 0 0 0 0
289 0 1 0 4.278 29.63885341911862 0 0 0 0
290 0 1 0 5.704 29.63885341911862 0 0 0 0
287 0 1 0 6.417 25.933996741728798 0 0 0 0
288 0 1 0 7.843 25.933996741728798 0 0 0 0
291 0 1 0 6.417 28.403901193322017 0 0 0 0
292 0 1 0 7.843 28.403901193322017 0 0 0 0
521 0 1 0 8.556 24.69904451593219 0 0 0 0
522 0 1 0 9.982000000000001 24.69904451593219 0 0 0 0
525 0 1 0 8.556 27.16894896752541 0 0 0 0
526 0 1 0 9.982000000000001 27.16894896752541 0 0 0 0
527 0 1 0 10.694999999999999 25.933996741728798 0 0 0 0
528 0 1 0 12.120999999999999 25.933996741728798 0 0 0 0
529 0 1 0 8.556 29.63885341911862 0 0 0 0
530 0 1 0 9.982000000000001 29.63885341911862 0 0 0 0
531 0 1 0 10.694999999999999 28.403901193322017 0 0 0 0
532 0 1 0 12.120999999999999 28.403901193322017 0 0 0 0
761 0 1 0 12.834 24.69904451593219 0 0 0 0
762 0 1 0 14.26 24.69904451593219 0 0 0 0
765 0 1 0 12.834 27.16894896752541 0 0 0 0
766 0 1 0 14.26 27.16894896752541 0 0 0 0
767 0 1 0 14.972999999999999 25.933996741728798 0 0 0 0
768 0 1 0 16.398999999999997 25.933996741728798 0 0 0 0
769 0 1 0 12.834 29.63885341911862 0 0 0 0
770 0 1 0 14.26 29.63885341911862 0 0 0 0
771 0 1 0 14.972999999999999 28.403901193322017 0 0 0 0
772 0 1 0 16.398999999999997 28.403901193322017 0 0 0 0
1001 0 1 0 17.112 24.69904451593219 0 0 0 0
1002 0 1 0 18.537999999999997 24.69904451593219 0 0 0 0
1005 0 1 0 17.112 27.16894896752541 0 0 0 0
1006 0 1 0 18.537999999999997 27.16894896752541 0 0 0 0
1009 0 1 0 17.112 29.63885341911862 0 0 0 0
1010 0 1 0 18.537999999999997 29.63885341911862 0 0 0 0
53 0 1 0 0 32.10875787071185 0 0 0 0
54 0 1 0 1.426 32.10875787071185 0 0 0 0
55 0 1 0 2.139 30.87380564491524 0 0 0 0
56 0 1 0 3.5649999999999995 30.87380564491524 0 0 0 0
57 0 1 0 0 34.578662322305064 0 0 0 0
58 0 1 0 1.426 34.578662322305064 0 0 0 0
59 0 1 0 2.139 33.34371009650845 0 0 0 0
60 0 1 0 3.5649999999999995 33.34371009650845 0 0 0 0
63 0 1 0 2.139 35.813614548101675 0 0 0 0
64 0 1 0 3.5649999999999995 35.813614548101675 0 0 0 0
293 0 1 0 4.278 32.10875787071185 0 0 0 0
294 0 1 0 5.704 32.10875787071185 0 0 0 0
297 0 1 0 4.278 34.578662322305064 0 0 0 0
298 0 1 0 5.704 34.578662322305064 0 0 0 0
295 0 1 0 6.417 30.87380564491524 0 0 0 0
296 0 1 0 7.843 30.87380564491524 0 0 0 0
299 0 1 0 6.417 33.34371009650845 0 0 0 0
300 0 1 0 7.843 33.34371009650845 0 0 0 0
303 0 1 0 6.417 35.813614548101675 0 0 0 0
304 0 1 0 7.843 35.813614548101675 0 0 0 0
533 0 1 0 8.556 32.10875787071185 0 0 0 0
534 0 1 0 9.982000000000001 32.10875787071185 0 0 0 0
535 0 1 0 10.694999999999999 30.87380564491524 0 0 0 0
536 0 1 0 12.120999999999999 30.87380564491524 0 0 0 0
537 0 1 0 8.556 34.578662322305064 0 0 0 0
538 0 1 0 9.982000000000001 34.578662322305064 0 0 0 0
539 0 1 0 10.694999999999999 33.34371009650845 0 0 0 0
540 0 1 0 12.120999999999999 33.34371009650845 0 0 0 0
543 0 1 0 10.694999999999999 35.813614548101675 0 0 0 0
544 0 1 0 12.120999999999999 35.813614548101675 0 0 0 0
784 0 1 0 16.398999999999997 35.813614548101675 0 0 0 0
783 0 1 0 14.972999999999999 35.813614548101675 0 0 0 0
777 0 1 0 12.834 34.578662322305064 0 0 0 0
1017 0 1 0 17.112 34.578662322305064 0 0 0 0
773 0 1 0 12.834 32.10875787071185 0 0 0 0
1014 0 1 0 18.537999999999997 32.10875787071185 0 0 0 0
779 0 1 0 14.972999999999999 33.34371009650845 0 0 0 0
774 0 1 0 14.26 32.10875787071185 0 0 0 0
1018 0 1 0 18.537999999999997 34.578662322305064 0 0 0 0
1013 0 1 0 17.112 32.10875787071185 0 0 0 0
776 0 1 0 16.398999999999997 30.87380564491524 0 0 0 0
775 0 1 0 14.972999999999999 30.87380564491524 0 0 0 0
780 0 1 0 16.398999999999997 33.34371009650845 0 0 0 0
778 0 1 0 14.26 34.578662322305064 0 0 0 0
61 0 1 0 0 37.04856677389829 0 0 0 0
62 0 1 0 1.426 37.04856677389829 0 0 0 0
65 0 1 0 0 39.518471225491496 0 0 0 0
66 0 1 0 1.426 39.518471225491496 0 0 0 0
67 0 1 0 2.139 38.28351899969489 0 0 0 0
68 0 1 0 3.5649999999999995 38.28351899969489 0 0 0 0
69 0 1 0 0 41.98837567708472 0 0 0 0
70 0 1 0 1.426 41.98837567708472 0 0 0 0
71 0 1 0 2.139 40.7534234512881 0 0 0 0
72 0 1 0 3.5649999999999995 40.7534234512881 0 0 0 0
75 0 1 0 2.139 43.22332790288133 0 0 0 0
76 0 1 0 3.5649999999999995 43.22332790288133 0 0 0 0
301 0 1 0 4.278 37.04856677389829 0 0 0 0
302 0 1 0 5.704 37.04856677389829 0 0 0 0
305 0 1 0 4.278 39.518471225491496 0 0 0 0
306 0 1 0 5.704 39.518471225491496 0 0 0 0
309 0 1 0 4.278 41.98837567708472 0 0 0 0
310 0 1 0 5.704 41.98837567708472 0 0 0 0
307 0 1 0 6.417 38.28351899969489 0 0 0 0
308 0 1 0 7.843 38.28351899969489 0 0 0 0
311 0 1 0 6.417 40.7534234512881 0 0 0 0
312 0 1 0 7.843 40.7534234512881 0 0 0 0
315 0 1 0 6.417 43.22332790288133 0 0 0 0
316 0 1 0 7.843 43.22332790288133 0 0 0 0
541 0 1 0 8.556 37.04856677389829 0 0 0 0
542 0 1 0 9.982000000000001 37.04856677389829 0 0 0 0
545 0 1 0 8.556 39.518471225491496 0 0 0 0
546 0 1 0 9.982000000000001 39.518471225491496 0 0 0 0
547 0 1 0 10.694999999999999 38.28351899969489 0 0 0 0
548 0 1 0 12.120999999999999 38.28351899969489 0 0 0 0
549 0 1 0 8.556 41.98837567708472 0 0 0 0
550 0 1 0 9.982000000000001 41.98837567708472 0 0 0 0
551 0 1 0 10.694999999999999 40.7534234512881 0 0 0 0
552 0 1 0 12.120999999999999 40.7534234512881 0 0 0 0
555 0 1 0 10.694999999999999 43.22332790288133 0 0 0 0
556 0 1 0 12.120999999999999 43.22332790288133 0 0 0 0
781 0 1 0 12.834 37.04856677389829 0 0 0 0
782 0 1 0 14.26 37.04856677389829 0 0 0 0
785 0 1 0 12.834 39.518471225491496 0 0 0 0
786 0 1 0 14.26 39.518471225491496 0 0 0 0
787 0 1 0 14.972999999999999 38.28351899969489 0 0 0 0
788 0 1 0 16.398999999999997 38.28351899969489 0 0 0 0
789 0 1 0 12.834 41.98837567708472 0 0 0 0
790 0 1 0 14.26 41.98837567708472 0 0 0 0
791 0 1 0 14.972999999999999 40.7534234512881 0 0 0 0
792 0 1 0 16.398999999999997 40.7534234512881 0 0 0 0
795 0 1 0 14.972999999999999 43.22332790288133 0 0 0 0
796 0 1 0 16.398999999999997 43.22332790288133 0 0 0 0
1021 0 1 0 17.112 37.04856677389829 0 0 0 0
1022 0 1 0 18.537999999999997 37.04856677389829 0 0 0 0
1025 0 1 0 17.112 39.518471225491496 0 0 0 0
1026 0 1 0 18.537999999999997 39.518471225491496 0 0 0 0
1029 0 1 0 17.112 41.98837567708472 0 0 0 0
1030 0 1 0 18.537999999999997 41.98837567708472 0 0 0 0
73 0 1 0 0 44.45828012867794 0 0 0 0
74 0 1 0 1.426 44.45828012867794 0 0 0 0
77 0 1 0 0 46.92818458027115 0 0 0 0
78 0 1 0 1.426 46.92818458027115 0 0 0 0
79 0 1 0 2.139 45.693232354474546 0 0 0 0
80 0 1 0 3.5649999999999995 45.693232354474546 0 0 0 0
81 0 1 0 0 49.39808903186438 0 0 0 0
82 0 1 0 1.426 49.39808903186438 0 0 0 0
83 0 1 0 2.139 48.16313680606777 0 0 0 0
84 0 1 0 3.5649999999999995 48.16313680606777 0 0 0 0
313 0 1 0 4.278 44.45828012867794 0 0 0 0
314 0 1 0 5.704 44.45828012867794 0 0 0 0
317 0 1 0 4.278 46.92818458027115 0 0 0 0
318 0 1 0 5.704 46.92818458027115 0 0 0 0
321 0 1 0 4.278 49.39808903186438 0 0 0 0
322 0 1 0 5.704 49.39808903186438 0 0 0 0
319 0 1 0 6.417 45.693232354474546 0 0 0 0
320 0 1 0 7.843 45.693232354474546 0 0 0 0
323 0 1 0 6.417 48.16313680606777 0 0 0 0
324 0 1 0 7.843 48.16313680606777 0 0 0 0
553 0 1 0 8.556 44.45828012867794 0 0 0 0
554 0 1 0 9.982000000000001 44.45828012867794 0 0 0 0
557 0 1 0 8.556 46.92818458027115 0 0 0 0
558 0 1 0 9.982000000000001 46.92818458027115 0 0 0 0
559 0 1 0 10.694999999999999 45.693232354474546 0 0 0 0
560 0 1 0 12.120999999999999 45.693232354474546 0 0 0 0
561 0 1 0 8.556 49.39808903186438 0 0 0 0
562 0 1 0 9.982000000000001 49.39808903186438 0 0 0 0
563 0 1 0 10.694999999999999 48.16313680606777 0 0 0 0
564 0 1 0 12.120999999999999 48.16313680606777 0 0 0 0
793 0 1 0 12.834 44.45828012867794 0 0 0 0
794 0 1 0 14.26 44.45828012867794 0 0 0 0
797 0 1 0 12.834 46.92818458027115 0 0 0 0
798 0 1 0 14.26 46.92818458027115 0 0 0 0
799 0 1 0 14.972999999999999 45.693232354474546 0 0 0 0
800 0 1 0 16.398999999999997 45.693232354474546 0 0 0 0
801 0 1 0 12.834 49.39808903186438 0 0 0 0
802 0 1 0 14.26 49.39808903186438 0 0 0 0
803 0 1 0 14.972999999999999 48.16313680606777 0 0 0 0
804 0 1 0 16.398999999999997 48.16313680606777 0 0 0 0
1033 0 1 0 17.112 44.45828012867794 0 0 0 0
1034 0 1 0 18.537999999999997 44.45828012867794 0 0 0 0
1037 0 1 0 17.112 46.92818458027115 0 0 0 0
1038 0 1 0 18.537999999999997 46.92818458027115 0 0 0 0
1041 0 1 0 17.112 49.39808903186438 0 0 0 0
1042 0 1 0 18.537999999999997 49.39808903186438 0 0 0 0
85 0 1 0 0 51.86799348345759 0 0 0 0
86 0 1 0 1.426 51.86799348345759 0 0 0 0
87 0 1 0 2.139 50.633041257660985 0 0 0 0
88 0 1 0 3.5649999999999995 50.633041257660985 0 0 0 0
89 0 1 0 0 54.33789793505082 0 0 0 0
90 0 1 0 1.426 54.33789793505082 0 0 0 0
91 0 1 0 2.139 53.1029457092542 0 0 0 0
92 0 1 0 3.5649999999999995 53.1029457092542 0 0 0 0
95 0 1 0 2.139 55.57285016084742 0 0 0 0
96 0 1 0 3.5649999999999995 55.57285016084742 0 0 0 0
325 0 1 0 4.278 51.86799348345759 0 0 0 0
326 0 1 0 5.704 51.86799348345759 0 0 0 0
329 0 1 0 4.278 54.33789793505082 0 0 0 0
330 0 1 0 5.704 54.33789793505082 0 0 0 0
327 0 1 0 6.417 50.633041257660985 0 0 0 0
328 0 1 0 7.843 50.633041257660985 0 0 0 0
331 0 1 0 6.417 53.1029457092542 0 0 0 0
332 0 1 0 7.843 53.1029457092542 0 0 0 0
335 0 1 0 6.417 55.57285016084742 0 0 0 0
336 0 1 0 7.843 55.57285016084742 0 0 0 0
565 0 1 0 8.556 51.86799348345759 0 0 0 0
566 0 1 0 9.982000000000001 51.86799348345759 0 0 0 0
567 0 1 0 10.694999999999999 50.633041257660985 0 0 0 0
568 0 1 0 12.120999999999999 50.633041257660985 0 0 0 0
569 0 1 0 8.556 54.33789793505082 0 0 0 0
570 0 1 0 9.982000000000001 54.33789793505082 0 0 0 0
571 0 1 0 10.694999999999999 53.1029457092542 0 0 0 0
572 0 1 0 12.120999999999999 53.1029457092542 0 0 0 0
575 0 1 0 10.694999999999999 55.57285016084742 0 0 0 0
576 0 1 0 12.120999999999999 55.57285016084742 0 0 0 0
805 0 1 0 12.834 51.86799348345759 0 0 0 0
806 0 1 0 14.26 51.86799348345759 0 0 0 0
807 0 1 0 14.972999999999999 50.633041257660985 0 0 0 0
808 0 1 0 16.398999999999997 50.633041257660985 0 0 0 0
809 0 1 0 12.834 54.33789793505082 0 0 0 0
810 0 1 0 14.26 54.33789793505082 0 0 0 0
811 0 1 0 14.972999999999999 53.1029457092542 0 0 0 0
812 0 1 0 16.398999999999997 53.1029457092542 0 0 0 0
815 0 1 0 14.972999999999999 55.57285016084742 0 0 0 0
816 0 1 0 16.398999999999997 55.57285016084742 0 0 0 0
1045 0 1 0 17.112 51.86799348345759 0 0 0 0
1046 0 1 0 18.537999999999997 51.86799348345759 0 0 0 0
1049 0 1 0 17.112 54.33789793505082 0 0 0 0
1050 0 1 0 18.537999999999997 54.33789793505082 0 0 0 0
93 0 1 0 0 56.807802386644035 0 0 0 0
94 0 1 0 1.426 56.807802386644035 0 0 0 0
97 0 1 0 0 59.27770683823724 0 0 0 0
98 0 1 0 1.426 59.27770683823724 0 0 0 0
99 0 1 0 2.139 58.04275461244064 0 0 0 0
100 0 1 0 3.5649999999999995 58.04275461244064 0 0 0 0
101 0 1 0 0 61.74761128983047 0 0 0 0
102 0 1 0 1.426 61.74761128983047 0 0 0 0
103 0 1 0 2.139 60.51265906403386 0 0 0 0
104 0 1 0 3.5649999999999995 60.51265906403386 0 0 0 0
333 0 1 0 4.278 56.807802386644035 0 0 0 0
334 0 1 0 5.704 56.807802386644035 0 0 0 0
337 0 1 0 4.278 59.27770683823724 0 0 0 0
338 0 1 0 5.704 59.27770683823724 0 0 0 0
341 0 1 0 4.278 61.74761128983047 0 0 0 0
342 0 1 0 5.704 61.74761128983047 0 0 0 0
339 0 1 0 6.417 58.04275461244064 0 0 0 0
340 0 1 0 7.843 58.04275461244064 0 0 0 0
343 0 1 0 6.417 60.51265906403386 0 0 0 0
344 0 1 0 7.843 60.51265906403386 0 0 0 0
573 0 1 0 8.556 56.807802386644035 0 0 0 0
574 0 1 0 9.982000000000001 56.807802386644035 0 0 0 0
577 0 1 0 8.556 59.27770683823724 0 0 0 0
578 0 1 0 9.982000000000001 59.27770683823724 0 0 0 0
579 0 1 0 10.694999999999999 58.04275461244064 0 0 0 0
580 0 1 0 12.120999999999999 58.04275461244064 0 0 0 0
581 0 1 0 8.556 61.74761128983047 0 0 0 0
582 0 1 0 9.982000000000001 61.74761128983047 0 0 0 0
583 0 1 0 10.694999999999999 60.51265906403386 0 0 0 0
584 0 1 0 12.120999999999999 60.51265906403386 0 0 0 0
813 0 1 0 12.834 56.807802386644035 0 0 0 0
814 0 1 0 14.26 56.807802386644035 0 0 0 0
817 0 1 0 12.834 59.27770683823724 0 0 0 0
818 0 1 0 14.26 59.27770683823724 0 0 0 0
819 0 1 0 14.972999999999999 58.04275461244064 0 0 0 0
820 0 1 0 16.398999999999997 58.04275461244064 0 0 0 0
821 0 1 0 12.834 61.74761128983047 0 0 0 0
822 0 1 0 14.26 61.74761128983047 0 0 0 0
823 0 1 0 14.972999999999999 60.51265906403386 0 0 0 0
824 0 1 0 16.398999999999997 60.51265906403386 0 0 0 0
1053 0 1 0 17.112 56.807802386644035 0 0 0 0
1054 0 1 0 18.537999999999997 56.807802386644035 0 0 0 0
1057 0 1 0 17.112 59.27770683823724 0 0 0 0
1058 0 1 0 18.537999999999997 59.27770683823724 0 0 0 0
1061 0 1 0 17.112 61.74761128983047 0 0 0 0
1062 0 1 0 18.537999999999997 61.74761128983047 0 0 0 0
105 0 1 0 0 64.2175157414237 0 0 0 0
106 0 1 0 1.426 64.2175157414237 0 0 0 0
107 0 1 0 2.139 62.982563515627085 0 0 0 0
108 0 1 0 3.5649999999999995 62.982563515627085 0 0 0 0
109 0 1 0 0 66.6874201930169 0 0 0 0
110 0 1 0 1.426 66.6874201930169 0 0 0 0
111 0 1 0 2.139 65.4524679672203 0 0 0 0
112 0 1 0 3.5649999999999995 65.4524679672203 0 0 0 0
345 0 1 0 4.278 64.2175157414237 0 0 0 0
346 0 1 0 5.704 64.2175157414237 0 0 0 0
349 0 1 0 4.278 66.6874201930169 0 0 0 0
350 0 1 0 5.704 66.6874201930169 0 0 0 0
347 0 1 0 6.417 62.982563515627085 0 0 0 0
348 0 1 0 7.843 62.982563515627085 0 0 0 0
351 0 1 0 6.417 65.4524679672203 0 0 0 0
352 0 1 0 7.843 65.4524679672203 0 0 0 0
585 0 1 0 8.556 64.2175157414237 0 0 0 0
586 0 1 0 9.982000000000001 64.2175157414237 0 0 0 0
587 0 1 0 10.694999999999999 62.982563515627085 0 0 0 0
588 0 1 0 12.120999999999999 62.982563515627085 0 0 0 0
589 0 1 0 8.556 66.6874201930169 0 0 0 0
590 0 1 0 9.982000000000001 66.6874201930169 0 0 0 0
591 0 1 0 10.694999999999999 65.4524679672203 0 0 0 0
592 0 1 0 12.120999999999999 65.4524679672203 0 0 0 0
825 0 1 0 12.834 64.2175157414237 0 0 0 0
826 0 1 0 14.26 64.2175157414237 0 0 0 0
827 0 1 0 14.972999999999999 62.982563515627085 0 0 0 0
828 0 1 0 16.398999999999997 62.982563515627085 0 0 0 0
829 0 1 0 12.834 66.6874201930169 0 0 0 0
830 0 1 0 14.26 66.6874201930169 0 0 0 0
831 0 1 0 14.972999999999999 65.4524679672203 0 0 0 0
832 0 1 0 16.398999999999997 65.4524679672203 0 0 0 0
1065 0 1 0 17.112 64.2175157414237 0 0 0 0
1066 0 1 0 18.537999999999997 64.2175157414237 0 0 0 0
1069 0 1 0 17.112 66.6874201930169 0 0 0 0
1070 0 1 0 18.537999999999997 66.6874201930169 0 0 0 0
113 0 1 0 0 69.15732464461013 0 0 0 0
114 0 1 0 1.426 69.15732464461013 0 0 0 0
115 0 1 0 2.139 67.92237241881352 0 0 0 0
116 0 1 0 3.5649999999999995 67.92237241881352 0 0 0 0
117 0 1 0 0 71.62722909620335 0 0 0 0
118 0 1 0 1.426 71.62722909620335 0 0 0 0
119 0 1 0 2.139 70.39227687040675 0 0 0 0
120 0 1 0 3.5649999999999995 70.39227687040675 0 0 0 0
123 0 1 0 2.139 72.86218132199997 0 0 0 0
124 0 1 0 3.5649999999999995 72.86218132199997 0 0 0 0
353 0 1 0 4.278 69.15732464461013 0 0 0 0
354 0 1 0 5.704 69.15732464461013 0 0 0 0
357 0 1 0 4.278 71.62722909620335 0 0 0 0
358 0 1 0 5.704 71.62722909620335 0 0 0 0
355 0 1 0 6.417 67.92237241881352 0 0 0 0
356 0 1 0 7.843 67.92237241881352 0 0 0 0
359 0 1 0 6.417 70.39227687040675 0 0 0 0
360 0 1 0 7.843 70.39227687040675 0 0 0 0
363 0 1 0 6.417 72.86218132199997 0 0 0 0
364 0 1 0 7.843 72.86218132199997 0 0 0 0
593 0 1 0 8.556 69.15732464461013 0 0 0 0
594 0 1 0 9.982000000000001 69.15732464461013 0 0 0 0
595 0 1 0 10.694999999999999 67.92237241881352 0 0 0 0
596 0 1 0 12.120999999999999 67.92237241881352 0 0 0 0
597 0 1 0 8.556 71.62722909620335 0 0 0 0
598 0 1 0 9.982000000000001 71.62722909620335 0 0 0 0
599 0 1 0 10.694999999999999 70.39227687040675 0 0 0 0
600 0 1 0 12.120999999999999 70.39227687040675 0 0 0 0
603 0 1 0 10.694999999999999 72.86218132199997 0 0 0 0
604 0 1 0 12.120999999999999 72.86218132199997 0 0 0 0
838 0 1 0 14.26 71.62722909620335 0 0 0 0
843 0 1 0 14.972999999999999 72.86218132199997 0 0 0 0
1073 0 1 0 17.112 69.15732464461013 0 0 0 0
1077 0 1 0 17.112 71.62722909620335 0 0 0 0
839 0 1 0 14.972999999999999 70.39227687040675 0 0 0 0
1074 0 1 0 18.537999999999997 69.15732464461013 0 0 0 0
833 0 1 0 12.834 69.15732464461013 0 0 0 0
834 0 1 0 14.26 69.15732464461013 0 0 0 0
835 0 1 0 14.972999999999999 67.92237241881352 0 0 0 0
1078 0 1 0 18.537999999999997 71.62722909620335 0 0 0 0
837 0 1 0 12.834 71.62722909620335 0 0 0 0
836 0 1 0 16.398999999999997 67.92237241881352 0 0 0 0
840 0 1 0 16.398999999999997 70.39227687040675 0 0 0 0
844 0 1 0 16.398999999999997 72.86218132199997 0 0 0 0
121 0 1 0 0 74.09713354779657 0 0 0 0
122 0 1 0 1.426 74.09713354779657 0 0 0 0
125 0 1 0 0 76.56703799938978 0 0 0 0
126 0 1 0 1.426 76.56703799938978 0 0 0 0
127 0 1 0 2.139 75.33208577359318 0 0 0 0
128 0 1 0 3.5649999999999995 75.33208577359318 0 0 0 0
129 0 1 0 0 79.03694245098299 0 0 0 0
130 0 1 0 1.426 79.03694245098299 0 0 0 0
131 0 1 0 2.139 77.8019902251864 0 0 0 0
132 0 1 0 3.5649999999999995 77.8019902251864 0 0 0 0
135 0 1 0 2.139 80.27189467677961 0 0 0 0
136 0 1 0 3.5649999999999995 80.27189467677961 0 0 0 0
361 0 1 0 4.278 74.09713354779657 0 0 0 0
362 0 1 0 5.704 74.09713354779657 0 0 0 0
365 0 1 0 4.278 76.56703799938978 0 0 0 0
366 0 1 0 5.704 76.56703799938978 0 0 0 0
369 0 1 0 4.278 79.03694245098299 0 0 0 0
370 0 1 0 5.704 79.03694245098299 0 0 0 0
367 0 1 0 6.417 75.33208577359318 0 0 0 0
368 0 1 0 7.843 75.33208577359318 0 0 0 0
371 0 1 0 6.417 77.8019902251864 0 0 0 0
372 0 1 0 7.843 77.8019902251864 0 0 0 0
375 0 1 0 6.417 80.27189467677961 0 0 0 0
376 0 1 0 7.843 80.27189467677961 0 0 0 0
601 0 1 0 8.556 74.09713354779657 0 0 0 0
602 0 1 0 9.982000000000001 74.09713354779657 0 0 0 0
605 0 1 0 8.556 76.56703799938978 0 0 0 0
606 0 1 0 9.982000000000001 76.56703799938978 0 0 0 0
607 0 1 0 10.694999999999999 75.33208577359318 0 0 0 0
608 0 1 0 12.120999999999999 75.33208577359318 0 0 0 0
609 0 1 0 8.556 79.03694245098299 0 0 0 0
610 0 1 0 9.982000000000001 79.03694245098299 0 0 0 0
611 0 1 0 10.694999999999999 77.8019902251864 0 0 0 0
612 0 1 0 12.120999999999999 77.8019902251864 0 0 0 0
615 0 1 0 10.694999999999999 80.27189467677961 0 0 0 0
616 0 1 0 12.120999999999999 80.27189467677961 0 0 0 0
841 0 1 0 12.834 74.09713354779657 0 0 0 0
842 0 1 0 14.26 74.09713354779657 0 0 0 0
845 0 1 0 12.834 76.56703799938978 0 0 0 0
846 0 1 0 14.26 76.56703799938978 0 0 0 0
847 0 1 0 14.972999999999999 75.33208577359318 0 0 0 0
848 0 1 0 16.398999999999997 75.33208577359318 0 0 0 0
849 0 1 0 12.834 79.03694245098299 0 0 0 0
850 0 1 0 14.26 79.03694245098299 0 0 0 0
851 0 1 0 14.972999999999999 77.8019902251864 0 0 0 0
852 0 1 0 16.398999999999997 77.8019902251864 0 0 0 0
855 0 1 0 14.972999999999999 80.27189467677961 0 0 0 0
856 0 1 0 16.398999999999997 80.27189467677961 0 0 0 0
1081 0 1 0 17.112 74.09713354779657 0 0 0 0
1082 0 1 0 18.537999999999997 74.09713354779657 0 0 0 0
1085 0 1 0 17.112 76.56703799938978 0 0 0 0
1086 0 1 0 18.537999999999997 76.56703799938978 0 0 0 0
1089 0 1 0 17.112 79.03694245098299 0 0 0 0
1090 0 1 0 18.537999999999997 79.03694245098299 0 0 0 0
133 0 1 0 0 81.50684690257623 0 0 0 0
134 0 1 0 1.426 81.50684690257623 0 0 0 0
137 0 1 0 0 83.97675135416944 0 0 0 0
138 0 1 0 1.426 83.97675135416944 0 0 0 0
139 0 1 0 2.139 82.74179912837283 0 0 0 0
140 0 1 0 3.5649999999999995 82.74179912837283 0 0 0 0
141 0 1 0 0 86.44665580576266 0 0 0 0
142 0 1 0 1.426 86.44665580576266 0 0 0 0
143 0 1 0 2.139 85.21170357996606 0 0 0 0
144 0 1 0 3.5649999999999995 85.21170357996606 0 0 0 0
373 0 1 0 4.278 81.50684690257623 0 0 0 0
374 0 1 0 5.704 81.50684690257623 0 0 0 0
377 0 1 0 4.278 83.97675135416944 0 0 0 0
378 0 1 0 5.704 83.97675135416944 0 0 0 0
381 0 1 0 4.278 86.44665580576266 0 0 0 0
382 0 1 0 5.704 86.44665580576266 0 0 0 0
379 0 1 0 6.417 82.74179912837283 0 0 0 0
380 0 1 0 7.843 82.74179912837283 0 0 0 0
383 0 1 0 6.417 85.21170357996606 0 0 0 0
384 0 1 0 7.843 85.21170357996606 0 0 0 0
613 0 1 0 8.556 81.50684690257623 0 0 0 0
614 0 1 0 9.982000000000001 81.50684690257623 0 0 0 0
617 0 1 0 8.556 83.97675135416944 0 0 0 0
618 0 1 0 9.982000000000001 83.97675135416944 0 0 0 0
619 0 1 0 10.694999999999999 82.74179912837283 0 0 0 0
620 0 1 0 12.120999999999999 82.74179912837283 0 0 0 0
621 0 1 0 8.556 86.44665580576266 0 0 0 0
622 0 1 0 9.982000000000001 86.44665580576266 0 0 0 0
623 0 1 0 10.694999999999999 85.21170357996606 0 0 0 0
624 0 1 0 12.120999999999999 85.21170357996606 0 0 0 0
853 0 1 0 12.834 81.50684690257623 0 0 0 0
854 0 1 0 14.26 81.50684690257623 0 0 0 0
857 0 1 0 12.834 83.97675135416944 0 0 0 0
858 0 1 0 14.26 83.97675135416944 0 0 0 0
859 0 1 0 14.972999999999999 82.74179912837283 0 0 0 0
860 0 1 0 16.398999999999997 82.74179912837283 0 0 0 0
861 0 1 0 12.834 86.44665580576266 0 0 0 0
862 0 1 0 14.26 86.44665580576266 0 0 0 0