LAMMPS (4 Feb 2025)
OMP_NUM_THREADS environment is not set. Defaulting to 1 thread. (src/comm.cpp:99)
  using 1 OpenMP thread(s) per MPI task
# LAMMPS script for running NVT simulation

units       metal
dimension   3
boundary    p p p
atom_style  full
atom_modify map yes

newton      on

read_data   ../start.lammps-data
Reading data file ...
  orthogonal box = (0 0 0) to (154.008 148.2 151.07609)
  16 by 8 by 12 MPI processor grid
  reading atoms ...
  21540 atoms
  reading velocities ...
  21540 velocities
Finding 1-2 1-3 1-4 neighbors ...
  special bond factors lj:    0        0        0       
  special bond factors coul:  0        0        0       
     0 = max # of 1-2 neighbors
     0 = max # of 1-3 neighbors
     0 = max # of 1-4 neighbors
     1 = max # of special neighbors
  special bonds CPU = 5.158 seconds
  read_data CPU = 5.498 seconds

pair_style  symmetrix/mace
pair_coeff  * * ../../../../00-common/models/ch2o-dens-inv_swa-1-6-8.json C H O
Loading MACE model from '../../../../00-common/models/ch2o-dens-inv_swa-1-6-8.json' ... success
  mapping LAMMPS type 1 (C) to MACE type 1
  mapping LAMMPS type 2 (H) to MACE type 0
  mapping LAMMPS type 3 (O) to MACE type 2

variable t equal step

group graphene type 1
8640 atoms in group graphene
group H2O type 2 3
12900 atoms in group H2O

thermo 1000

######### NVT equilibration for 50 ps #############

dump DUMP1 all atom 100 nvt_equi.lammpstrj
timestep 0.001
fix NVT1 graphene nvt temp 300 300 0.1
fix NVT2 H2O nvt temp 300 300 0.1
run 50000
Neighbor list info ...
  update: every = 1 steps, delay = 0 steps, check = yes
  max neighbors/atom: 2000, page size: 100000
  master list distance cutoff = 8
  ghost atom cutoff = 8
  binsize = 4, bins = 39 38 38
  1 neighbor lists, perpetual/occasional/extra = 1 0 0
  (1) pair symmetrix/mace, perpetual
      attributes: full, newton on
      pair build: full/bin
      stencil: full/bin/3d
      bin: standard
Per MPI rank memory allocation (min/avg/max) = 5.961 | 6.266 | 8.069 Mbytes
   Step          Temp          E_pair         E_mol          TotEng         Press     
         0   301.21701     -3359568        0             -3358729.4     -102.7633     
      1000   297.41385     -3359698.6      0             -3358870.6      4.2359064    
      2000   302.15209     -3359739.1      0             -3358897.9      14.579698    
      3000   299.3934      -3359727.5      0             -3358894       -25.09833     
      4000   300.90227     -3359729.5      0             -3358891.8      23.335789    
      5000   302.37271     -3359741.9      0             -3358900.1     -17.534184    
      6000   298.8607      -3359744.7      0             -3358912.7     -9.2999065    
      7000   302.26283     -3359745.6      0             -3358904.1     -31.968779    
      8000   298.97363     -3359743.2      0             -3358910.8     -18.025696    
      9000   299.33067     -3359746.8      0             -3358913.5     -18.940357    
     10000   297.79882     -3359748.8      0             -3358919.7     -4.6183136    
     11000   301.94174     -3359745.5      0             -3358904.8     -46.96307     
     12000   298.91897     -3359744.4      0             -3358912.1     -23.403354    
     13000   298.56458     -3359738        0             -3358906.8     -36.314267    
     14000   299.62826     -3359746        0             -3358911.8      9.184808     
     15000   299.44377     -3359747.3      0             -3358913.6     -2.0524199    
     16000   299.76943     -3359749.1      0             -3358914.5     -2.6145568    
     17000   298.366       -3359737.4      0             -3358906.7     -1.6215611    
     18000   300.06976     -3359746.8      0             -3358911.4     -36.101665    
     19000   300.77313     -3359758.8      0             -3358921.4      4.3775882    
     20000   302.32006     -3359739.9      0             -3358898.2      33.564228    
     21000   296.9266      -3359742.1      0             -3358915.4     -58.870502    
     22000   300.72918     -3359738.6      0             -3358901.4     -46.177495    
     23000   299.0252      -3359751.2      0             -3358918.7     -57.853378    
     24000   299.24611     -3359732.6      0             -3358899.4     -36.529996    
     25000   298.41816     -3359749.3      0             -3358918.5     -62.876192    
     26000   298.45527     -3359742        0             -3358911       -59.707327    
     27000   300.71992     -3359741.9      0             -3358904.7     -19.522533    
     28000   299.36251     -3359743.3      0             -3358909.8     -29.960261    
     29000   299.60181     -3359743.9      0             -3358909.8     -4.0026509    
     30000   300.48913     -3359740.1      0             -3358903.5     -7.3819253    
     31000   301.85632     -3359747.1      0             -3358906.7      36.047779    
     32000   299.75327     -3359743.3      0             -3358908.8     -85.94033     
     33000   298.82643     -3359737.9      0             -3358905.9      18.340131    
     34000   304.36856     -3359748.7      0             -3358901.3      13.494482    
     35000   295.83891     -3359742.5      0             -3358918.9     -36.341627    
     36000   298.8893      -3359749.3      0             -3358917.1     -1.8352318    
     37000   298.07691     -3359744.9      0             -3358915       -17.249494    
     38000   302.00696     -3359752        0             -3358911.2      1.6587874    
     39000   298.74014     -3359746.9      0             -3358915.2     -43.161875    
     40000   300.7817      -3359738        0             -3358900.6     -60.191224    
     41000   298.33965     -3359749.4      0             -3358918.8     -7.3572607    
     42000   298.13363     -3359753.9      0             -3358923.9      12.984282    
     43000   299.27953     -3359735.5      0             -3358902.3     -20.077642    
     44000   298.96076     -3359751.5      0             -3358919.2     -44.711819    
     45000   298.75129     -3359750.7      0             -3358918.9     -55.498273    
     46000   302.06339     -3359747.6      0             -3358906.6     -80.369624    
     47000   300.27474     -3359745.3      0             -3358909.3     -12.450346    
     48000   302.40674     -3359746.9      0             -3358905       -35.396188    
     49000   298.9862      -3359749.8      0             -3358917.4     -58.175745    
     50000   297.63251     -3359741.6      0             -3358913       -39.225376    
Loop time of 48469.9 on 1536 procs for 50000 steps with 21540 atoms

Performance: 0.089 ns/day, 269.277 hours/ns, 1.032 timesteps/s, 22.220 katom-step/s
100.0% CPU use with 1536 MPI tasks x 1 OpenMP threads

MPI task timing breakdown:
Section |  min time  |  avg time  |  max time  |%varavg| %total
---------------------------------------------------------------
Pair    | 0.20474    | 6561.5     | 46926      |15682.9 | 13.54
Bond    | 0.0031824  | 0.0082502  | 0.12785    |  13.8 |  0.00
Neigh   | 0.023859   | 0.31124    | 5.3891     | 149.8 |  0.00
Comm    | 1.2146     | 2133.2     | 23278      |10728.7 |  4.40
Output  | 6.8077     | 12.145     | 17.944     |  96.0 |  0.03
Modify  | 304.54     | 39751      | 48445      |8123.9 | 82.01
Other   |            | 11.5       |            |       |  0.02

Nlocal:        14.0234 ave         255 max           0 min
Histogram: 1354 8 93 8 9 8 7 9 27 13
Nghost:        148.326 ave        2229 max           0 min
Histogram: 1167 223 37 41 25 7 8 17 7 4
Neighs:              0 ave           0 max           0 min
Histogram: 1536 0 0 0 0 0 0 0 0 0
FullNghs:      2109.69 ave       50046 max           0 min
Histogram: 1356 101 7 10 6 7 6 8 23 12

Total # of neighbors = 3240484
Ave neighs/atom = 150.4403
Ave special neighs/atom = 0
Neighbor list builds = 2645
Dangerous builds = 0

write_restart nvt_equi.restart.*
System init for write_restart ...
write_data nvt_equi_final.lammps-data
System init for write_data ...

Total wall time: 13:28:25
