LAMMPS (4 Feb 2025)
OMP_NUM_THREADS environment is not set. Defaulting to 1 thread. (src/comm.cpp:99)
  using 1 OpenMP thread(s) per MPI task
# LAMMPS script for running NVT simulation

units       metal
dimension   3
boundary    p p p
atom_style  full
atom_modify map yes

newton      on

read_data   ../start.lammps-data
Reading data file ...
  orthogonal box = (0 0 0) to (152.46792 146.71232 151.07317)
  16 by 8 by 8 MPI processor grid
  reading atoms ...
  11640 atoms
  reading velocities ...
  11640 velocities
Finding 1-2 1-3 1-4 neighbors ...
  special bond factors lj:    0        0        0       
  special bond factors coul:  0        0        0       
     0 = max # of 1-2 neighbors
     0 = max # of 1-3 neighbors
     0 = max # of 1-4 neighbors
     1 = max # of special neighbors
  special bonds CPU = 5.882 seconds
  read_data CPU = 6.098 seconds

pair_style  symmetrix/mace
pair_coeff  * * ../../../00-common/models/ch2o-dens-inv_swa-1-6-8.json C H O
Loading MACE model from '../../../00-common/models/ch2o-dens-inv_swa-1-6-8.json' ... success
  mapping LAMMPS type 1 (C) to MACE type 1
  mapping LAMMPS type 2 (H) to MACE type 0
  mapping LAMMPS type 3 (O) to MACE type 2

variable t equal step

group graphene type 1
8640 atoms in group graphene
group H2O type 2 3
3000 atoms in group H2O

thermo 1000

######### NVT equilibration for 80 ps #############

dump DUMP1 all atom 100 nvt_equi.lammpstrj
timestep 0.001
fix NVT1 graphene nvt temp 300 300 0.1
fix NVT2 H2O nvt temp 300 300 0.1
run 80000
Neighbor list info ...
  update: every = 1 steps, delay = 0 steps, check = yes
  max neighbors/atom: 2000, page size: 100000
  master list distance cutoff = 8
  ghost atom cutoff = 8
  binsize = 4, bins = 39 37 38
  1 neighbor lists, perpetual/occasional/extra = 1 0 0
  (1) pair symmetrix/mace, perpetual
      attributes: full, newton on
      pair build: full/bin
      stencil: full/bin/3d
      bin: standard
Per MPI rank memory allocation (min/avg/max) = 5.921 | 6.239 | 8.646 Mbytes
   Step          Temp          E_pair         E_mol          TotEng         Press     
         0   78.173347     -1810136.4      0             -1810018.8      2193.8936    
      1000   101.5316      -1810130.8      0             -1809978        1086.8088    
      2000   308.46417     -1809934.1      0             -1809470       -348.43255    
      3000   299.69843     -1809910.6      0             -1809459.7     -167.81106    
      4000   296.33826     -1809906.7      0             -1809460.9     -129.08344    
      5000   294.78641     -1809883.9      0             -1809440.5     -85.153003    
      6000   309.12749     -1809883.3      0             -1809418.3      28.787491    
      7000   300.36897     -1809881.1      0             -1809429.2      13.120006    
      8000   294.17146     -1809869.1      0             -1809426.5      57.617054    
      9000   297.64738     -1809874.7      0             -1809426.9      19.586744    
     10000   302.66723     -1809873.3      0             -1809418        70.452957    
     11000   297.0549      -1809881.3      0             -1809434.4      56.077176    
     12000   299.00991     -1809869        0             -1809419.2     -19.214869    
     13000   298.04747     -1809866.1      0             -1809417.7      21.255629    
     14000   298.75961     -1809868.4      0             -1809418.9      53.036052    
     15000   295.21946     -1809870.2      0             -1809426.1      68.744569    
     16000   306.34085     -1809882.1      0             -1809421.2      234.69174    
     17000   303.40239     -1809871.9      0             -1809415.5      74.502788    
     18000   295.12431     -1809876.2      0             -1809432.2      138.918      
     19000   300.02518     -1809872.9      0             -1809421.5      80.378186    
     20000   298.83253     -1809870.5      0             -1809420.9      136.3165     
     21000   297.62863     -1809872.4      0             -1809424.6      103.27761    
     22000   301.90698     -1809859.6      0             -1809405.4      196.59975    
     23000   297.87766     -1809879.3      0             -1809431.2      143.43317    
     24000   299.29364     -1809868.6      0             -1809418.4      57.77066     
     25000   301.91302     -1809866.4      0             -1809412.2      121.09749    
     26000   303.0966      -1809875.8      0             -1809419.8      210.52684    
     27000   301.78615     -1809872.6      0             -1809418.6      95.921667    
     28000   303.67024     -1809872.2      0             -1809415.3      149.80207    
     29000   298.3977      -1809874.7      0             -1809425.7      95.164956    
     30000   299.68574     -1809872.9      0             -1809422        58.782002    
     31000   298.33701     -1809877        0             -1809428.2      105.84121    
     32000   299.78275     -1809874.1      0             -1809423.1      45.0904      
     33000   302.63623     -1809871.3      0             -1809416        74.748512    
     34000   297.39538     -1809876.8      0             -1809429.3      69.215504    
     35000   298.78315     -1809875.5      0             -1809426        118.93483    
     36000   298.84168     -1809874.4      0             -1809424.8      75.426121    
     37000   297.0007      -1809878        0             -1809431.2      39.91799     
     38000   301.70022     -1809871.7      0             -1809417.8      118.94906    
     39000   299.4054      -1809881.8      0             -1809431.4      86.885746    
     40000   302.66251     -1809867.6      0             -1809412.3      68.928567    
     41000   301.82599     -1809877.6      0             -1809423.5      89.577493    
     42000   299.0306      -1809877.2      0             -1809427.3      113.85901    
     43000   295.42472     -1809869.1      0             -1809424.7      113.5505     
     44000   297.68104     -1809872.2      0             -1809424.3     -19.128752    
     45000   298.64526     -1809881.5      0             -1809432.2      78.287418    
     46000   303.23369     -1809878.3      0             -1809422.1      131.48608    
     47000   296.05917     -1809879.6      0             -1809434.2      61.078793    
     48000   298.16728     -1809881.1      0             -1809432.6      11.513991    
     49000   301.74122     -1809876.1      0             -1809422.1      79.861455    
     50000   298.38511     -1809873.1      0             -1809424.2      92.575484    
     51000   301.8972      -1809885.3      0             -1809431.1      58.525008    
     52000   296.91549     -1809880.4      0             -1809433.8      50.730332    
     53000   297.4445      -1809884.9      0             -1809437.4      115.41616    
     54000   299.33298     -1809875.7      0             -1809425.4      51.702809    
     55000   298.2591      -1809882.7      0             -1809434        75.738691    
     56000   299.20782     -1809879.9      0             -1809429.7      96.359269    
     57000   298.24423     -1809878.6      0             -1809429.9      86.686143    
     58000   301.7956      -1809886        0             -1809431.9      48.135088    
     59000   297.94455     -1809879.1      0             -1809430.8      110.82394    
     60000   299.31111     -1809875.1      0             -1809424.8      57.710837    
     61000   300.20941     -1809873.1      0             -1809421.4      51.143359    
     62000   296.24938     -1809878.1      0             -1809432.4      98.365888    
     63000   301.97221     -1809875.3      0             -1809421        55.716879    
     64000   298.25826     -1809870.1      0             -1809421.4      23.887044    
     65000   298.50871     -1809873.8      0             -1809424.7      48.621455    
     66000   301.00105     -1809875.9      0             -1809423.1      25.685095    
     67000   301.35429     -1809879.6      0             -1809426.2      83.113421    
     68000   302.54129     -1809885.2      0             -1809430.1      101.77596    
     69000   294.93388     -1809881.6      0             -1809437.9      55.105937    
     70000   301.41764     -1809876        0             -1809422.5      59.750963    
     71000   298.42388     -1809879.1      0             -1809430.1      61.297626    
     72000   302.99933     -1809881.3      0             -1809425.4      106.30325    
     73000   297.90951     -1809880.9      0             -1809432.7      5.3015901    
     74000   299.99847     -1809877.6      0             -1809426.3      47.278298    
     75000   301.56865     -1809874.2      0             -1809420.5      67.553639    
     76000   296.26132     -1809878.2      0             -1809432.5      58.803057    
     77000   295.62157     -1809876        0             -1809431.3      50.593997    
     78000   298.74237     -1809881.3      0             -1809431.8      62.330451    
     79000   301.09349     -1809871        0             -1809418.1      89.757385    
     80000   299.86705     -1809878.7      0             -1809427.6      44.965802    
Loop time of 59900.8 on 1024 procs for 80000 steps with 11640 atoms

Performance: 0.115 ns/day, 207.989 hours/ns, 1.336 timesteps/s, 15.546 katom-step/s
100.0% CPU use with 1024 MPI tasks x 1 OpenMP threads

MPI task timing breakdown:
Section |  min time  |  avg time  |  max time  |%varavg| %total
---------------------------------------------------------------
Pair    | 0.16227    | 5984       | 53781      |13579.0 |  9.99
Bond    | 0.0031993  | 0.0080143  | 0.036979   |   7.0 |  0.00
Neigh   | 0.021488   | 0.1505     | 3.3242     |  92.6 |  0.00
Comm    | 0.56903    | 2242.8     | 18864      |8383.3 |  3.74
Output  | 0.80414    | 5.6763     | 10.898     | 126.8 |  0.01
Modify  | 12.823     | 51660      | 59887      |5989.6 | 86.24
Other   |            | 7.91       |            |       |  0.01

Nlocal:        11.3672 ave         249 max           0 min
Histogram: 873 23 98 8 5 5 7 2 2 1
Nghost:        99.4346 ave        1542 max           0 min
Histogram: 768 112 103 12 8 6 5 6 1 3
Neighs:              0 ave           0 max           0 min
Histogram: 1024 0 0 0 0 0 0 0 0 0
FullNghs:      1217.75 ave       43964 max           0 min
Histogram: 904 94 4 4 3 6 4 2 1 2

Total # of neighbors = 1246978
Ave neighs/atom = 107.12869
Ave special neighs/atom = 0
Neighbor list builds = 3919
Dangerous builds = 0

write_restart nvt_equi.restart.*
System init for write_restart ...
write_data nvt_equi_final.lammps-data
System init for write_data ...

Total wall time: 16:38:47
