LAMMPS data file via write_data, version 4 Feb 2025, timestep = 80000, units = metal

11640 atoms
3 atom types

0 152.46792 xlo xhi
0 146.71232442463722 ylo yhi
0 151.07316997686289 zlo zhi

Masses

1 12.01099999691024
2 1.007999999740698
3 15.99899999588435

Atoms # full

7232 0 1 0 7.671994126446974 15.897641442320637 34.95493288564826 1 0 0
7445 0 1 0 8.663776665356883 2.5109948106252125 37.53826970422413 1 0 0
6990 0 1 0 1.255300528823064 17.105496052684483 35.60148359989288 1 0 0
7231 0 1 0 6.251900046502369 15.836789893298922 35.09887621984141 1 0 0
6991 0 1 0 2.0035167349196867 15.874612528547324 35.71145001247105 1 0 0
7235 0 1 0 6.219287095370149 18.31938053798934 35.17205599403636 1 0 0
7226 0 1 0 5.52783979232065 14.570501553678117 35.205646162392846 1 0 0
7212 0 1 0 7.944101025776493 3.7913859301650774 37.44609114314846 1 0 0
7465 0 1 0 8.374281201682491 14.659657896625145 35.076212588189954 1 0 0
6986 0 1 0 1.3223811329656225 14.637062209531946 35.93498169251072 1 0 0
7469 0 1 0 8.345707188128378 17.128697259576143 34.788964262882295 1 0 0
6974 0 1 0 1.4248017346004194 7.425249752829166 37.430925034519895 1 0 0
6992 0 1 0 3.3949826569327937 15.853807491719328 35.38705643238279 1 0 0
6976 0 1 0 3.5613145085473104 6.217228796115211 37.4105656655875 1 0 0
7213 0 1 0 4.292876345265379 7.3786376250124075 37.09572009658789 1 0 0
6996 0 1 0 3.4044601465162483 18.31271741528557 35.334366857191306 1 0 0
6980 0 1 0 3.553456059284932 8.578429889224138 36.82371475119625 1 0 0
6975 0 1 0 2.165038782117193 6.222969064791255 37.59888502984872 1 0 0
6979 0 1 0 2.12581622540311 8.603471104091982 36.99561341609363 1 0 0
7214 0 1 0 5.703532781580219 7.412375365158989 37.02435799000147 1 0 0
7210 0 1 0 5.819986510479696 5.022583786602671 37.57329588270645 1 0 0
7219 0 1 0 6.372318848710043 8.60040763300244 36.62596390973728 1 0 0
7215 0 1 0 6.450620999795357 6.2484616405796665 37.1765559216137 1 0 0
7220 0 1 0 7.763592601571231 8.608134529014967 36.35647816089274 1 0 0
7216 0 1 0 7.841651603513968 6.244800012487464 37.013070854853254 1 0 0
7453 0 1 0 8.508929737639882 7.414080054982516 36.64176254858139 1 0 0
7449 0 1 0 8.586952812064554 5.008906758378768 37.07209590035534 1 0 0
6978 0 1 0 1.4053014238217076 9.820968622719873 36.722444241196875 1 0 0
6987 0 1 0 2.0139508747648693 13.434042513694305 36.08362366311418 1 0 0
6988 0 1 0 3.4143864710020395 13.408192920300069 35.81653864675954 1 0 0
7217 0 1 0 4.217646347016137 9.798335258559515 36.38063534055956 1 0 0
6984 0 1 0 3.4852516167910057 11.004810334251959 36.23425799127469 1 0 0
7221 0 1 0 4.206016148777521 12.238716260263939 35.94981651118836 1 0 0
6983 0 1 0 2.0928471400511888 10.999284001671427 36.429483385572425 1 0 0
6982 0 1 0 1.3500642752382077 12.220668306698267 36.24607136535987 1 0 0
7218 0 1 0 5.662002231433733 9.762999601221965 36.33316709836295 1 0 0
7222 0 1 0 5.6568902269148715 12.193276553541082 35.75720496524041 1 0 0
7227 0 1 0 6.286050821949601 13.39221310931205 35.45689029396901 1 0 0
7223 0 1 0 6.365032775452011 10.97395745952271 35.8996120177486 1 0 0
7230 0 1 0 5.500397943072547 17.079482260132306 35.19814450745101 1 0 0
7461 0 1 0 8.437367966903263 12.194366221490473 35.38271891633657 1 0 0
7228 0 1 0 7.714059711705697 13.438472918732149 35.38317924324628 1 0 0
7457 0 1 0 8.486619073803952 9.77171919195469 35.86498890175261 1 0 0
7224 0 1 0 7.758162818541759 10.952857738747111 35.681042804966204 1 0 0
7225 0 1 0 4.151469016827078 14.596986946358799 35.477010526673695 1 0 0
7229 0 1 0 4.143077473520771 17.063180620655196 35.31158906733927 1 0 0
7209 0 1 0 4.38448524581162 5.010860873550507 37.716464178199104 1 0 0
6995 0 1 0 1.9662217212238422 18.324060922324552 35.46271551656515 1 0 0
6962 0 1 0 1.6854547820919052 0.11644248182928658 39.02232245222913 1 0 0
7201 0 1 0 4.42026045839619 0.10727237501655687 38.63752044622043 1 0 0
6967 0 1 0 2.322272439539311 1.3446091904930035 38.676040803597026 1 0 0
7441 0 1 0 8.739068243576964 0.10247577248400769 38.043010841790846 1 0 0
7202 0 1 0 5.880633391233601 0.08804719971176884 38.45510426318686 1 0 0
6968 0 1 0 3.743517993100378 1.3218059216768585 38.47632651710508 1 0 0
7207 0 1 0 6.554138110298516 1.3436441144962967 38.152986085351095 1 0 0
6966 0 1 0 1.610076028940182 2.5675201326494506 38.587601314536066 1 0 0
7208 0 1 0 7.979605297839556 1.2732326572444728 37.918754264188784 1 0 0
6961 0 1 0 0.2337896658584207 0.11693866541036052 39.09888158495149 1 0 0
7205 0 1 0 4.400909500895219 2.538948148098173 38.082055994285064 1 0 0
7206 0 1 0 5.817324259418854 2.5515490816676185 38.00348738075404 1 0 0
6965 0 1 0 0.2104851515196236 2.557696499056768 38.75892033682749 1 0 0
6971 0 1 0 2.315822332720759 3.764520784576958 38.14104470945669 1 0 0
6972 0 1 0 3.7355197646562703 3.762310723564394 38.01249708978928 1 0 0
6970 0 1 0 1.5192378696685442 5.022645978434597 37.88596514402807 1 0 0
6969 0 1 0 0.10042519691580325 5.00348569700408 38.084267862749556 1 0 0
7211 0 1 0 6.551968910548141 3.8095961298369954 37.79208549193601 1 0 0
7233 0 1 0 4.119683510208226 19.540393143571496 35.30752319902752 1 0 0
7237 0 1 0 4.063965722948206 22.067637885978087 35.35809173198567 1 0 0
7000 0 1 0 3.365049494000265 20.79830445640484 35.35788246754908 1 0 0
6999 0 1 0 1.9760788692705493 20.823467657054582 35.48663281142782 1 0 0
6994 0 1 0 1.2676635523403939 19.57885939058544 35.53365969717191 1 0 0
6998 0 1 0 1.2483255256010608 22.086922209127017 35.609866120288366 1 0 0
7024 0 1 0 3.6659333740724875 35.56752021569524 37.40267742563881 1 0 0
7263 0 1 0 6.447614319865599 35.54267005747491 36.98625336054493 1 0 0
7238 0 1 0 5.487592588049181 22.058223704711963 35.168554764058236 1 0 0
7234 0 1 0 5.52185467818524 19.56919055034671 35.15957396503344 1 0 0
7239 0 1 0 6.242825952729595 20.863799163770242 35.11505873025213 1 0 0
7018 0 1 0 1.4369866788800003 34.38070714083875 37.44043061713401 1 0 0
7258 0 1 0 5.6608702199651795 34.33385029422964 36.97160736641017 1 0 0
7023 0 1 0 2.2002501144106916 35.55517343959196 37.617848341091126 1 0 0
7240 0 1 0 7.652215947774783 20.82494774770463 35.068905673879854 1 0 0
7477 0 1 0 8.334825755007902 22.106895964862613 35.050678142364504 1 0 0
7473 0 1 0 8.384562191688504 19.622697724943926 34.79281373075672 1 0 0
7259 0 1 0 6.35143869743728 33.1220993664281 36.61741975767999 1 0 0
7006 0 1 0 1.3676286681879224 26.97818228709089 36.064678648268426 1 0 0
7003 0 1 0 2.0205992309171203 23.302215372653894 35.668628894180216 1 0 0
7007 0 1 0 2.0248048398849225 25.78912948999195 35.82840625209635 1 0 0
7241 0 1 0 4.145379014533423 24.506828564942754 35.47768052434231 1 0 0
7245 0 1 0 4.107150374885287 26.977668456611674 35.78259906041629 1 0 0
7004 0 1 0 3.4169168945905426 23.292070789129507 35.58742228868772 1 0 0
7008 0 1 0 3.4174045108522755 25.773957587169036 35.666278470875326 1 0 0
7002 0 1 0 1.3062102110239084 24.5402521066262 35.65568290979893 1 0 0
7242 0 1 0 5.54783807363971 24.53658046572945 35.39063244132946 1 0 0
7246 0 1 0 5.555282707023508 27.009530975563727 35.65366712326567 1 0 0
7243 0 1 0 6.273613805949196 23.29211704237975 35.25902745719293 1 0 0
7247 0 1 0 6.283618612633087 25.78180233834967 35.35771258483517 1 0 0
7244 0 1 0 7.653976614650719 23.36362238909074 35.1690719168156 1 0 0
7248 0 1 0 7.721448860134028 25.777699217457013 35.17236231800306 1 0 0
7020 0 1 0 3.509703419989439 33.08202992254031 37.01701617534203 1 0 0
7264 0 1 0 7.788596616520522 35.520136674396895 36.74874930392625 1 0 0
7481 0 1 0 8.435827105968416 24.535373778921553 35.10039138363428 1 0 0
7485 0 1 0 8.43101603415668 27.013771085382018 35.25683980129574 1 0 0
7010 0 1 0 1.3896834435998002 29.443331103050667 36.587204394219526 1 0 0
7011 0 1 0 2.049820305655392 28.220556988509948 36.20409699973917 1 0 0
7249 0 1 0 4.2253725358228875 29.43288989702065 36.176502377902416 1 0 0
7253 0 1 0 4.232239757904752 31.834244029236597 36.67163898327754 1 0 0
7016 0 1 0 3.523529239234391 30.652580162810064 36.51937410281306 1 0 0
7012 0 1 0 3.485526683794737 28.215484922511553 36.08443412733433 1 0 0
7015 0 1 0 2.1311089318401195 30.66788404167392 36.727135333057745 1 0 0
7014 0 1 0 1.4014939739132828 31.893009402972158 37.00553778206802 1 0 0
7250 0 1 0 5.686151098053876 29.419266076751452 36.073532924023944 1 0 0
7254 0 1 0 5.671444496921656 31.84064801541876 36.48449289407859 1 0 0
7251 0 1 0 6.350606851406013 28.172501567366986 35.8075587183098 1 0 0
7255 0 1 0 6.394931685733862 30.636245233096204 36.160177116590944 1 0 0
7260 0 1 0 7.790832900818313 33.13408666111972 36.30621093905688 1 0 0
7252 0 1 0 7.752674589631582 28.188488252991398 35.66243976026096 1 0 0
7256 0 1 0 7.817926304377026 30.68333730102786 35.920344433219505 1 0 0
7489 0 1 0 8.480981426189 29.45469368940813 35.68903236220324 1 0 0
7493 0 1 0 8.495726869929609 31.916842341949373 35.92444437687615 1 0 0
7019 0 1 0 2.06153452118456 33.15286266785722 37.10107900689789 1 0 0
7497 0 1 0 8.491144456009103 34.29048978197473 36.483707579531305 1 0 0
7257 0 1 0 4.265567675405891 34.28198153710992 37.106270813712676 1 0 0
7013 0 1 0 0.011738862940144581 31.865332497748255 37.18187535093798 1 0 0
7017 0 1 0 0.006002272443162016 34.320088143710684 37.59380656646 1 0 0
7236 0 1 0 7.670372034667537 18.384350035814638 34.90888919062002 1 0 0
7268 0 1 0 7.875845993495863 38.02327870975656 37.07791267013917 1 0 0
7505 0 1 0 8.619496951327871 39.23926760533764 37.198717202900035 1 0 0
7267 0 1 0 6.442421686516143 38.03757081689817 37.27926995425676 1 0 0
7266 0 1 0 5.752666131482922 39.198647756497564 37.58763663564106 1 0 0
7272 0 1 0 7.935242061092734 40.44397650114587 37.62078014565937 1 0 0
7028 0 1 0 3.6480326108072085 37.98565238975328 37.7170045777981 1 0 0
7501 0 1 0 8.525823377364746 36.81274197970985 36.856788222611975 1 0 0
7262 0 1 0 5.789431991929791 36.78099538224458 37.22750913320647 1 0 0
7261 0 1 0 4.353043589497351 36.80063016505709 37.469661271916465 1 0 0
7032 0 1 0 3.649240818646285 40.416769198882314 38.19543876983873 1 0 0
7031 0 1 0 2.2297817749643842 40.45594322914304 38.41765380688296 1 0 0
7026 0 1 0 1.4952894945718345 39.190291550463606 38.32397163593116 1 0 0
7027 0 1 0 2.2178120089448172 38.00487096492425 38.0502277094037 1 0 0
7022 0 1 0 1.4870998824340018 36.80281330291619 37.78212311356863 1 0 0
7513 0 1 0 8.745623007617521 44.02027556001023 38.603646650621435 1 0 0
7290 0 1 0 6.093819473752304 53.82586760185546 40.38559470018805 1 0 0
7045 0 1 0 0.3662370318090535 51.42079976189541 40.52880484734352 1 0 0
7529 0 1 0 8.905908983841512 53.82632857491169 40.03192866226879 1 0 0
7291 0 1 0 6.781059277770548 52.572396899353826 40.149459249901525 1 0 0
7041 0 1 0 0.2680434797400575 48.98192754397237 40.17433215660877 1 0 0
7030 0 1 0 1.544506219323394 41.66028168973023 38.71811015697382 1 0 0
7034 0 1 0 1.6088093174714082 44.07202025296552 39.30964053759988 1 0 0
7273 0 1 0 4.435434075406389 44.0872067031686 38.921995542980746 1 0 0
7040 0 1 0 3.7455571982011815 45.2670738499696 39.29955597389856 1 0 0
7039 0 1 0 2.3467862850123895 45.29277112324799 39.444666598672136 1 0 0
7035 0 1 0 2.3172398027689987 42.92110318021414 38.89241376424914 1 0 0
7036 0 1 0 3.6975414740455173 42.8836118170519 38.72481064026867 1 0 0
7269 0 1 0 4.390550611829511 41.64262299407829 38.401723689334474 1 0 0
7274 0 1 0 5.866504401669092 44.04060696074314 38.83941848082214 1 0 0
7279 0 1 0 6.585525222967702 45.23531814882419 39.07870078858196 1 0 0
7280 0 1 0 7.979427321797436 45.203946286236395 38.922032558069695 1 0 0
7270 0 1 0 5.842526338408881 41.677876841875765 38.19229976807325 1 0 0
7033 0 1 0 0.1972741141199345 44.037758081560135 39.4043230109188 1 0 0
7029 0 1 0 0.15135802530256412 41.61775897771928 38.85770587309657 1 0 0
7275 0 1 0 6.5845035082065175 42.803570155966916 38.550288545760424 1 0 0
7292 0 1 0 8.173444442451549 52.615278168957616 40.01570917489857 1 0 0
7048 0 1 0 3.9121908971096517 50.16054705449242 40.29150641887149 1 0 0
7047 0 1 0 2.472793648673663 50.13270070186805 40.27979058657098 1 0 0
7281 0 1 0 4.579600030150919 48.91537863052951 39.92977710393087 1 0 0
7038 0 1 0 1.6376610695454403 46.484524786111095 39.708620028064054 1 0 0
7042 0 1 0 1.7121557316741551 48.94505141618757 40.03994667268778 1 0 0
7044 0 1 0 3.7997678498692937 47.70261723222539 39.71433618413162 1 0 0
7277 0 1 0 4.476772294226794 46.486071928171526 39.46714636179389 1 0 0
7043 0 1 0 2.386162904201068 47.69373854763789 39.74021299234487 1 0 0
7282 0 1 0 5.982485042899262 48.88763445151208 39.79543628569823 1 0 0
7278 0 1 0 5.900030348320585 46.44791931884097 39.47715630510938 1 0 0
7288 0 1 0 8.16195093780303 50.10015060746358 39.7488661932175 1 0 0
7287 0 1 0 6.712047603169454 50.12667218708757 39.92281956328014 1 0 0
7283 0 1 0 6.68351884286433 47.64359474825486 39.58811715226331 1 0 0
7521 0 1 0 8.845940629531688 48.854800724247674 39.70394309083983 1 0 0
7284 0 1 0 8.106806195226191 47.634062078900584 39.47195890798121 1 0 0
7517 0 1 0 8.761327942993661 46.40087974174813 39.13859941457896 1 0 0
7289 0 1 0 4.642477343726092 53.84368656509171 40.53269671754331 1 0 0
7052 0 1 0 3.918890852847655 52.56293215424178 40.69412838042189 1 0 0
7285 0 1 0 4.642851971211666 51.33807807804362 40.455268025213215 1 0 0
7051 0 1 0 2.4721621135918252 52.56660666609305 40.67229321133094 1 0 0
7046 0 1 0 1.7734514598125972 51.36495674186382 40.51885941189758 1 0 0
7050 0 1 0 1.795382441138685 53.86084266535417 40.713789165363345 1 0 0
7049 0 1 0 0.3169078478322135 53.88904271234895 40.59281620107302 1 0 0
7525 0 1 0 8.883679958633286 51.352311340477975 39.8496336906655 1 0 0
7286 0 1 0 6.064243999791383 51.306367425093114 40.149905618007196 1 0 0
7037 0 1 0 0.22086582770398905 46.480270927122056 39.73942887324004 1 0 0
7021 0 1 0 0.06149426477586233 36.78911927516639 37.95767887442429 1 0 0
7025 0 1 0 0.07710531445949001 39.2453849147533 38.34291872744848 1 0 0
7276 0 1 0 7.993154072905763 42.791794850046784 38.351486405143994 1 0 0
7509 0 1 0 8.679099256462461 41.627444967439615 37.842756275362184 1 0 0
7265 0 1 0 4.379507842944696 39.24863936977143 37.801287325721695 1 0 0
7271 0 1 0 6.521797252391179 40.44690641711248 37.81847262808594 1 0 0
7293 0 1 0 4.710008096526183 56.32864264921536 40.767999265495476 1 0 0
7060 0 1 0 3.998714611129006 57.58814314525255 40.95975013995303 1 0 0
7054 0 1 0 1.7778217965710668 56.34336378476319 40.887156553143285 1 0 0
7059 0 1 0 2.5605636368098756 57.5366625785688 40.9319574109368 1 0 0
7297 0 1 0 4.695101668165401 58.855537990840226 40.9781610139815 1 0 0
7058 0 1 0 1.8681745314181226 58.82601600270024 40.87417323947135 1 0 0
7053 0 1 0 0.37167802894220414 56.337161200689806 40.71682347632545 1 0 0
7057 0 1 0 0.452192710197474 58.83338102530907 40.66623892986748 1 0 0
7294 0 1 0 6.13830907492242 56.321544753524854 40.70776445688754 1 0 0
7298 0 1 0 6.1058045344900655 58.858042034673325 40.829384664602266 1 0 0
7299 0 1 0 6.825562883149472 57.599914176542335 40.71727814233671 1 0 0
7537 0 1 0 8.996891213870557 58.77547540823119 40.664347827178396 1 0 0
7300 0 1 0 8.236626380727131 57.562432754904705 40.6488136730894 1 0 0
7533 0 1 0 8.935644185833361 56.31847119161201 40.50962898661152 1 0 0
7068 0 1 0 4.032283683726308 62.49820832032472 41.07913147928365 1 0 0
7064 0 1 0 3.9634186936489857 60.066611238207926 41.23725137592516 1 0 0
7301 0 1 0 4.709285789870682 61.29941246400014 41.21789077265003 1 0 0
7063 0 1 0 2.542312744199039 60.06574495548942 41.104966346434125 1 0 0
7305 0 1 0 4.746305013862468 63.77988382794723 41.10106146345706 1 0 0
7067 0 1 0 2.5762826910616488 62.553456969644934 40.94638154736977 1 0 0
7062 0 1 0 1.8826372259438253 61.31164084768558 41.03760030150202 1 0 0
7066 0 1 0 1.8735923312157132 63.77606157318 40.773689941837894 1 0 0
7065 0 1 0 0.5066713219147244 63.83080089928726 40.471003928401856 1 0 0
7061 0 1 0 0.4879063485268573 61.31870268098893 40.7028190345494 1 0 0
7302 0 1 0 6.137439396732294 61.310694610069405 41.11062941544084 1 0 0
7306 0 1 0 6.149834511788542 63.7710097227479 41.109937970573846 1 0 0
7303 0 1 0 6.816723367668048 60.060099813512046 40.91916427350653 1 0 0
7304 0 1 0 8.273021258091026 60.003458587925344 40.824741901703334 1 0 0
7545 0 1 0 9.00630813537452 63.64368050277331 41.03491689269302 1 0 0
7308 0 1 0 8.300313405413698 62.417735033218975 40.989807024208346 1 0 0
7541 0 1 0 9.012560048029139 61.193200267016884 40.82876845076938 1 0 0
7307 0 1 0 6.882808872337123 62.536009982745256 41.118083534688914 1 0 0
7070 0 1 0 1.9480897095647782 66.27901826533466 40.5711083668913 1 0 0
7075 0 1 0 2.722606410085947 67.53229133624852 40.60462549719134 1 0 0
7072 0 1 0 3.979997592973866 65.04221481750722 41.07258498861937 1 0 0
7309 0 1 0 4.780203326872504 66.2055423308388 40.99855465203348 1 0 0
7071 0 1 0 2.550735057773618 65.05116447722143 40.827383532107575 1 0 0
7076 0 1 0 4.101620384860205 67.45650845811939 40.785074592350284 1 0 0
7313 0 1 0 4.806238401283934 68.70333526351371 40.677727974839435 1 0 0
7074 0 1 0 2.053451929610967 68.70824874637621 40.18978862612804 1 0 0
7073 0 1 0 0.6552754577633528 68.77019910653529 39.90802773909514 1 0 0
7069 0 1 0 0.5524241417497018 66.29550952590124 40.29235084927535 1 0 0
7553 0 1 0 9.054202026027335 68.64124996134755 41.21005359166779 1 0 0
7311 0 1 0 6.906668719709751 64.96324421664764 41.17970704977672 1 0 0
7549 0 1 0 9.06849262460691 66.15720468343751 41.17225323978249 1 0 0
7312 0 1 0 8.315657535429692 64.93527471631039 41.26209762464428 1 0 0
7316 0 1 0 8.331872225764583 67.43260225640482 41.11166747669386 1 0 0
7310 0 1 0 6.153954128138035 66.16041297867669 41.028173903115295 1 0 0
7315 0 1 0 6.92098721584355 67.40954486714888 40.95715525688634 1 0 0
7314 0 1 0 6.194484841607227 68.63582111785567 40.763080610706915 1 0 0
7080 0 1 0 4.139945016839531 69.90992616205193 40.40473314878997 1 0 0
7317 0 1 0 4.8256347784809535 71.1337945535088 40.211178648967234 1 0 0
7079 0 1 0 2.7720427258682774 69.97906237344932 40.15584299986498 1 0 0
7084 0 1 0 4.226439856471214 72.37486303988662 39.90214895454761 1 0 0
7083 0 1 0 2.8431461896709527 72.37536361432196 39.68727268253594 1 0 0
7078 0 1 0 2.0800005495943568 71.16255263412774 39.82462699849477 1 0 0
7077 0 1 0 0.7069759482706219 71.17756433858584 39.53611801785696 1 0 0
7320 0 1 0 8.3827327201429 69.86320369262933 40.95551739046274 1 0 0
7318 0 1 0 6.251879031650099 71.0776100501875 40.35148399365229 1 0 0
7324 0 1 0 8.460832616396718 72.33968394453724 40.49916934475519 1 0 0
7557 0 1 0 9.102335507581412 71.0777711026261 40.74209880273874 1 0 0
7323 0 1 0 7.058054819898864 72.29134190038263 40.25369572703283 1 0 0
7319 0 1 0 6.980786751035823 69.87626787848392 40.67296515179856 1 0 0
7295 0 1 0 6.78533260682837 55.123027667734576 40.467993481761454 1 0 0
7056 0 1 0 3.9491470689166595 55.06545970543307 40.65695846869432 1 0 0
7296 0 1 0 8.242485443139966 55.09462636903459 40.34444313142999 1 0 0
7055 0 1 0 2.4874602471200915 55.079075596875576 40.83455533895526 1 0 0
6844 0 1 0 0.08250037959962242 72.42446207666471 39.205814770706404 1 0 0
7109 0 1 0 1.3974695531160657 90.52134299543671 35.6748100232935 1 0 0
7093 0 1 0 1.0808476497559523 80.69718099106328 37.165962086004434 1 0 0
7099 0 1 0 3.2008954465137767 81.98951086831741 37.55093064974315 1 0 0
7089 0 1 0 0.9779793832420891 78.33253175605743 37.7138159157838 1 0 0
7094 0 1 0 2.474568970460907 80.76224073462669 37.51517318258798 1 0 0
7351 0 1 0 7.643865105092057 89.33667305392031 37.11334937928987 1 0 0
7350 0 1 0 7.018861571096231 90.51881854676809 36.824889751438754 1 0 0
7352 0 1 0 9.036928764114146 89.27307385268232 37.3811571525673 1 0 0
7346 0 1 0 6.8838133519607165 88.10173259920381 37.278263312985366 1 0 0
6856 0 1 0 0.30646492848657914 79.57697358340339 37.29835146647639 1 0 0
7345 0 1 0 5.550779316494844 88.0511779581824 36.888103372299426 1 0 0
6860 0 1 0 0.4710387345666618 81.9168927663953 36.72439333212725 1 0 0
7349 0 1 0 5.628588396754498 90.52230389326002 36.45357515509567 1 0 0
6868 0 1 0 0.5806144951132447 86.80746952761456 35.93144987137997 1 0 0
7101 0 1 0 1.2829247294957558 85.5702362665122 36.177766380866764 1 0 0
7097 0 1 0 1.17268969957581 83.12083390686578 36.6207196520302 1 0 0
7108 0 1 0 4.767291300422043 86.86113577169174 36.99873470635378 1 0 0
7104 0 1 0 4.655185695672344 84.44051241265636 37.578007817728405 1 0 0
7103 0 1 0 3.265265881635252 84.42782841834058 37.1124986366217 1 0 0
7107 0 1 0 3.397967007666405 86.79743132970427 36.672906369465686 1 0 0
7102 0 1 0 2.645028364560612 85.5983327929734 36.63029801315581 1 0 0
7098 0 1 0 2.5260399606385118 83.18597625581224 37.06356806461355 1 0 0
7112 0 1 0 4.875242210522134 89.26064844969756 36.485851754822136 1 0 0
7341 0 1 0 5.36062230186895 85.68854999220052 37.568768234623974 1 0 0
6872 0 1 0 0.6883267749615335 89.31661588314276 35.66391153729246 1 0 0
7111 0 1 0 3.4544894620979063 89.27123177893763 36.22555226775858 1 0 0
7105 0 1 0 1.3330344644944447 88.03806156383445 35.93240369042309 1 0 0
7347 0 1 0 7.501736215987837 86.88610267793828 37.71777825847647 1 0 0
7110 0 1 0 2.7647299629262974 90.48412863338734 35.91687658179658 1 0 0
7106 0 1 0 2.700509543962337 88.0513469875483 36.264387715130844 1 0 0
6864 0 1 0 0.552989977384881 84.37916873138543 36.2740606455108 1 0 0
7321 0 1 0 5.009614804310383 73.54538074002183 39.71634065278871 1 0 0
7088 0 1 0 4.298080991471231 74.74136289078733 39.37056089341837 1 0 0
7325 0 1 0 5.052127999011736 75.93757471839082 39.26284581704175 1 0 0
7082 0 1 0 2.162150593274953 73.59247145047472 39.237802222544914 1 0 0
7087 0 1 0 2.924998837289615 74.76967827209572 39.13956787569025 1 0 0
7092 0 1 0 4.45754437839572 77.13902509226001 38.744701932341506 1 0 0
7095 0 1 0 3.1252699826627186 79.55709183772727 37.88937747795504 1 0 0
7081 0 1 0 0.7757544309892906 73.62905504720622 39.02824772024131 1 0 0
7086 0 1 0 2.2317600250458414 75.92235298436967 38.6528312488273 1 0 0
7330 0 1 0 6.568889549746811 78.3172891353964 38.98129474167261 1 0 0
7328 0 1 0 8.561333773867199 74.75084054468606 40.06764261329624 1 0 0
7565 0 1 0 9.33853298899794 75.94934080835698 39.89681791779098 1 0 0
7332 0 1 0 8.690155261353341 77.14360294929664 39.57094482532785 1 0 0
7326 0 1 0 6.487484685090668 75.94930926426073 39.53378221670805 1 0 0
7085 0 1 0 0.8470444148192725 75.94181982604186 38.359640466722304 1 0 0
7327 0 1 0 7.159666296479402 74.72594343875262 39.80833317689996 1 0 0
7331 0 1 0 7.265665808832172 77.14188635311332 39.37027641451246 1 0 0
7322 0 1 0 6.408620946660559 73.52512464087202 39.905390406415805 1 0 0
7569 0 1 0 9.356607771973847 78.397202302982 39.57081158205493 1 0 0
7573 0 1 0 9.416702181825645 80.85104280274832 39.078315605784205 1 0 0
7336 0 1 0 8.68047428524729 79.63337721640046 39.16250902509352 1 0 0
7335 0 1 0 7.262920897021137 79.61141681097381 38.9895071445988 1 0 0
7329 0 1 0 5.208182137851598 78.34787936442933 38.66572808985962 1 0 0
7340 0 1 0 8.73642900705151 82.06931724462841 38.908078382207236 1 0 0
6852 0 1 0 0.24713310781665324 77.14357290193266 37.86937303879906 1 0 0
7091 0 1 0 3.0528661127147614 77.13231044148186 38.48661949026317 1 0 0
7334 0 1 0 6.572413087925964 80.76642825729901 38.58496397451695 1 0 0
7096 0 1 0 4.521232935790835 79.56020421051592 38.28279853393992 1 0 0
7339 0 1 0 7.331744027634191 82.04838133226126 38.66963583848207 1 0 0
7090 0 1 0 2.356235066584883 78.33999634680582 37.992712441436886 1 0 0
7333 0 1 0 5.221131101485038 80.8156583011858 38.27520152308162 1 0 0
7561 0 1 0 9.260848188582601 73.56076005687116 40.36436596774462 1 0 0
6848 0 1 0 0.08055064676345368 74.82796988570837 38.644433075678236 1 0 0
7344 0 1 0 8.777745217991205 84.53035402975969 38.604914656473134 1 0 0
7338 0 1 0 6.681470228510044 83.27239711575078 38.33697442810057 1 0 0
7348 0 1 0 8.934485852004178 86.83346590364124 37.92660182491412 1 0 0
7343 0 1 0 7.375017335883323 84.49807073078311 38.36018509485815 1 0 0
7100 0 1 0 4.5795677824740695 82.0525305808328 37.97568674952379 1 0 0
7337 0 1 0 5.270145236952692 83.27352195070675 38.013567304617666 1 0 0
7577 0 1 0 9.448971710513042 83.29753271149912 38.83285382946741 1 0 0
7342 0 1 0 6.731558080563182 85.70264220410996 37.9577690663879 1 0 0
7119 0 1 0 3.500724565004881 94.19282262158156 35.86388280701349 1 0 0
7118 0 1 0 2.802468704984505 95.4093999778416 35.621608932438775 1 0 0
7114 0 1 0 2.8292882565567083 92.95595484273267 35.77808546405645 1 0 0
7120 0 1 0 4.917926973156467 94.15563010539312 36.0300053902822 1 0 0
6876 0 1 0 0.7027556862363317 91.76179196152113 35.46871773478116 1 0 0
7113 0 1 0 1.4118874376419435 92.9870420661224 35.452275722964245 1 0 0
7117 0 1 0 1.3797310690496845 95.43582922186474 35.44931386840286 1 0 0
7372 0 1 0 8.989487390077988 101.5717543806124 37.554310694141755 1 0 0
7138 0 1 0 2.508849167427211 107.5971511393214 37.61834018657115 1 0 0
6880 0 1 0 0.6462931021281749 94.21417698709598 35.319297873778254 1 0 0
7353 0 1 0 5.650208399309066 92.93117215555588 36.14868485767919 1 0 0
7357 0 1 0 5.6073123375365865 95.40213887407354 36.08180177838222 1 0 0
7358 0 1 0 7.005882644038417 95.43489458926105 36.31742446567951 1 0 0
7354 0 1 0 7.1051846622245804 92.96230495111104 36.391680708030066 1 0 0
7359 0 1 0 7.749183355403456 94.20298436377253 36.41955924498637 1 0 0
7360 0 1 0 9.112430839294882 94.23709212747296 36.77219522378697 1 0 0
6900 0 1 0 0.4218953958743149 106.38849989231097 37.023306780236645 1 0 0
7137 0 1 0 1.0477706384154288 107.61339589906643 37.43381861962892 1 0 0
7139 0 1 0 3.270663798045501 106.38753688125789 37.430052663977435 1 0 0
7140 0 1 0 4.646829208346524 106.42030496066467 37.56109957362411 1 0 0
7123 0 1 0 3.4981938689527388 96.64766898333357 35.85913348413538 1 0 0
7122 0 1 0 2.7713195857112756 97.892673553672 35.86210979529609 1 0 0
7128 0 1 0 4.8969813697021785 99.09244342150856 36.39241403171472 1 0 0
7124 0 1 0 4.8797634777989485 96.67242188008507 36.10831848953159 1 0 0
7127 0 1 0 3.4874554728190654 99.08884026844181 36.18608199872814 1 0 0
7126 0 1 0 2.710650192885114 100.32279116231089 36.27202508356502 1 0 0
7121 0 1 0 1.3622199177536511 97.90480488192159 35.584985366724744 1 0 0
7125 0 1 0 1.29089492796578 100.30835919042622 36.00873945372324 1 0 0
6884 0 1 0 0.7047616815266693 96.63666474939062 35.358419954406926 1 0 0
6888 0 1 0 0.6350478277552651 99.04804135402652 35.57779826269854 1 0 0
7361 0 1 0 5.594954518730442 97.88929147041256 36.389160059382284 1 0 0
7365 0 1 0 5.440235606655448 100.34204291224539 36.81943362328042 1 0 0
7362 0 1 0 6.999039216451952 97.85670231823399 36.748155981916696 1 0 0
7366 0 1 0 6.8593616852992465 100.311501071734 37.0853816606476 1 0 0
7367 0 1 0 7.621332774859863 99.11580860570945 36.96596695448248 1 0 0
7363 0 1 0 7.73550916859035 96.62536895397551 36.560836401284206 1 0 0
7364 0 1 0 9.110399006850779 96.66570294646078 36.897257573389275 1 0 0
7368 0 1 0 9.051001541242881 99.06642579309292 37.247347306632705 1 0 0
7115 0 1 0 3.5282022814424896 91.72529024856053 35.93657309591055 1 0 0
6904 0 1 0 0.29930699999153665 108.79849527706453 37.60210676155982 1 0 0
7132 0 1 0 4.705576851768052 101.54197910235176 36.87550987059142 1 0 0
7131 0 1 0 3.3506671069320912 101.534065440545 36.53051390726412 1 0 0
7135 0 1 0 3.250156002833652 103.99792597389225 36.96077185022671 1 0 0
7136 0 1 0 4.680313405526285 103.97929653998816 37.3027401104227 1 0 0
7130 0 1 0 2.6265645258619132 102.76650025051934 36.512324567993424 1 0 0
7134 0 1 0 2.524102899612815 105.18703875443781 37.03519496072359 1 0 0
7129 0 1 0 1.233892635808118 102.80166489249642 36.18105902377673 1 0 0
7133 0 1 0 1.1273448003072666 105.16434156300856 36.86355933211303 1 0 0
6896 0 1 0 0.44764683501621977 104.00331549548086 36.35146696759875 1 0 0
6892 0 1 0 0.5476192868719122 101.5548201681503 35.93094110936145 1 0 0
7373 0 1 0 5.35595161750935 105.19818363642828 37.47214276195034 1 0 0
7369 0 1 0 5.388613907733545 102.77041759185165 37.22701970124604 1 0 0
7370 0 1 0 6.800874061900985 102.74737012089778 37.358193611458724 1 0 0
7356 0 1 0 9.150373938189729 91.73492591234705 36.98638922330023 1 0 0
7375 0 1 0 7.478120354217653 103.99789017968949 37.54837932878124 1 0 0
7371 0 1 0 7.560263177667588 101.5415502635984 37.297164870742655 1 0 0
7355 0 1 0 7.783075079625206 91.75710735089194 36.69000909499043 1 0 0
7116 0 1 0 4.8898605033571405 91.71387969227072 36.19657851885733 1 0 0
7374 0 1 0 6.771664078645169 105.21978568143442 37.7344944134794 1 0 0
7384 0 1 0 8.730219811866487 108.85702686658512 38.896102980431536 1 0 0
7376 0 1 0 8.924537954786565 103.99267581040898 37.859950259602655 1 0 0
7383 0 1 0 7.358631346307609 108.87566274816001 38.53830606316891 1 0 0
7378 0 1 0 6.6759983644540375 107.63726805595792 38.2317362536494 1 0 0
7380 0 1 0 8.829206571762121 106.3852450103532 38.37791016824482 1 0 0
7144 0 1 0 4.573266656386653 108.87932605010154 37.99494229890473 1 0 0
7377 0 1 0 5.295261078478686 107.62615387720814 37.89686901401853 1 0 0
7379 0 1 0 7.399619770776553 106.36225981941976 38.13913783604786 1 0 0
7617 0 1 0 9.506721232116362 107.61742834596023 38.67127104294734 1 0 0
7141 0 1 0 0.9485033663340767 110.00802702115006 37.96836296474672 1 0 0
7143 0 1 0 3.0899800890687668 108.83968757750938 37.88268239218949 1 0 0
7152 0 1 0 4.372724349499416 113.73227887218216 38.84254860307777 1 0 0
7151 0 1 0 2.9218640828113926 113.65213669214795 38.685134253228206 1 0 0
7146 0 1 0 2.300097429298613 112.44896664490493 38.463512750408505 1 0 0
7392 0 1 0 8.64991210289544 113.7398674419019 39.438334266159984 1 0 0
7625 0 1 0 9.36481648079661 112.48426292324935 39.5273163761846 1 0 0
7388 0 1 0 8.634960194940227 111.24767417029135 39.30622595653306 1 0 0
7145 0 1 0 0.8379661230534976 112.42644688491905 38.43623872693786 1 0 0
7391 0 1 0 7.208350603492632 113.75669715422825 39.206258835110994 1 0 0
7386 0 1 0 6.568983764772167 112.55331135091114 38.954896305761636 1 0 0
7385 0 1 0 5.108670349907216 112.53711862246217 38.72172349012619 1 0 0
7387 0 1 0 7.249811452432086 111.32276495854128 38.98162805548382 1 0 0