LAMMPS (4 Feb 2025)
OMP_NUM_THREADS environment is not set. Defaulting to 1 thread. (src/comm.cpp:99)
  using 1 OpenMP thread(s) per MPI task
# LAMMPS script for continuing NVT simulation

atom_modify map yes
newton      on

read_restart nvt_prod.restart.1120000
Reading restart file ...
  restart file = 4 Feb 2025, LAMMPS = 4 Feb 2025
  restoring atom style full from restart
  orthogonal box = (0 0 0) to (154.008 148.2 151.07609)
  16 by 8 by 10 MPI processor grid
  pair style symmetrix/mace stores no restart info
  10140 atoms
Finding 1-2 1-3 1-4 neighbors ...
  special bond factors lj:    0        0        0       
  special bond factors coul:  0        0        0       
     0 = max # of 1-2 neighbors
     0 = max # of 1-3 neighbors
     0 = max # of 1-4 neighbors
     1 = max # of special neighbors
  special bonds CPU = 4.358 seconds
  read_restart CPU = 4.574 seconds

pair_style  symmetrix/mace
pair_coeff  * * ../../../../00-common/models/ch2o-dens-inv_swa-1-6-8.json C H O
Loading MACE model from '../../../../00-common/models/ch2o-dens-inv_swa-1-6-8.json' ... success
  mapping LAMMPS type 1 (C) to MACE type 1
  mapping LAMMPS type 2 (H) to MACE type 0
  mapping LAMMPS type 3 (O) to MACE type 2

group graphene type 1
8640 atoms in group graphene
group H2O type 2 3
1500 atoms in group H2O

thermo 1000

######### NVT production for 80 ps #############

dump DUMP1 all atom 100 nvt_prod_14.lammpstrj
timestep 0.001
fix NVT1 graphene nvt temp 300 300 0.1
Resetting global fix info from restart file:
  fix style: nvt, fix ID: NVT1
fix NVT2 H2O nvt temp 300 300 0.1
Resetting global fix info from restart file:
  fix style: nvt, fix ID: NVT2
run 80000
All restart file global fix info was re-assigned
Neighbor list info ...
  update: every = 1 steps, delay = 0 steps, check = yes
  max neighbors/atom: 2000, page size: 100000
  master list distance cutoff = 8
  ghost atom cutoff = 8
  binsize = 4, bins = 39 38 38
  1 neighbor lists, perpetual/occasional/extra = 1 0 0
  (1) pair symmetrix/mace, perpetual
      attributes: full, newton on
      pair build: full/bin
      stencil: full/bin/3d
      bin: standard
Per MPI rank memory allocation (min/avg/max) = 5.916 | 6.136 | 7.932 Mbytes
   Step          Temp          E_pair         E_mol          TotEng         Press     
   1120000   300.31007     -1575051.2      0             -1574657.7      72.902273    
   1121000   298.52612     -1575058.2      0             -1574667        32.874603    
   1122000   302.04446     -1575050.7      0             -1574654.8      62.283079    
   1123000   300.38217     -1575052.8      0             -1574659.1      56.983224    
   1124000   300.86545     -1575058.2      0             -1574663.9      70.644172    
   1125000   298.44901     -1575059.4      0             -1574668.2      54.234517    
   1126000   296.04538     -1575051.1      0             -1574663.1      33.932037    
   1127000   303.47496     -1575060        0             -1574662.3      38.118447    
   1128000   298.57612     -1575050        0             -1574658.7      37.313639    
   1129000   298.72282     -1575056.2      0             -1574664.7      54.008003    
   1130000   299.72442     -1575051.3      0             -1574658.5     -8.4492732    
   1131000   302.14587     -1575057.5      0             -1574661.6     -10.352658    
   1132000   296.49796     -1575056.8      0             -1574668.2      34.577664    
   1133000   301.83762     -1575049.7      0             -1574654.1      57.922249    
   1134000   300.28283     -1575051.6      0             -1574658.1      59.362966    
   1135000   300.16229     -1575055.6      0             -1574662.3      50.064493    
   1136000   302.79932     -1575058.7      0             -1574661.9      17.471291    
   1137000   297.75116     -1575053.4      0             -1574663.2      42.040935    
   1138000   300.51429     -1575058.6      0             -1574664.7      74.816587    
   1139000   298.6193      -1575055.6      0             -1574664.2      44.079398    
   1140000   296.55308     -1575056.9      0             -1574668.3      32.815601    
   1141000   301.81153     -1575052.7      0             -1574657.1      11.913388    
   1142000   298.23822     -1575056.4      0             -1574665.5      12.368284    
   1143000   299.04964     -1575044.2      0             -1574652.2      28.703386    
   1144000   298.78376     -1575055        0             -1574663.4      20.915478    
   1145000   300.12198     -1575055.8      0             -1574662.5      38.379024    
   1146000   299.52314     -1575049.8      0             -1574657.2      30.011178    
   1147000   298.92501     -1575053.1      0             -1574661.3      32.915674    
   1148000   298.12433     -1575053.7      0             -1574663        58.991201    
   1149000   301.53031     -1575049.7      0             -1574654.5      78.421781    
   1150000   299.3837      -1575051.4      0             -1574659        28.571377    
   1151000   298.20239     -1575058.4      0             -1574667.6      37.730808    
   1152000   297.5511      -1575050.5      0             -1574660.6      42.23488     
   1153000   298.98785     -1575059.8      0             -1574668       -14.755399    
   1154000   303.13257     -1575056.4      0             -1574659.2      8.7921163    
   1155000   295.39338     -1575053        0             -1574665.9      10.876642    
   1156000   304.81023     -1575055.2      0             -1574655.7      20.437939    
   1157000   298.53662     -1575061.2      0             -1574669.9      34.341529    
   1158000   302.33779     -1575053.3      0             -1574657.1      17.183497    
   1159000   302.03718     -1575057.5      0             -1574661.7      64.588017    
   1160000   295.90508     -1575053.1      0             -1574665.3      70.70701     
   1161000   299.47227     -1575056.3      0             -1574663.8      76.071294    
   1162000   295.88791     -1575058.8      0             -1574671        56.540651    
   1163000   297.28851     -1575054.6      0             -1574664.9      69.541129    
   1164000   302.6945      -1575060.3      0             -1574663.6      26.152353    
   1165000   296.28946     -1575053.4      0             -1574665        24.12207     
   1166000   299.72714     -1575051.3      0             -1574658.4      40.041458    
   1167000   300.77378     -1575049        0             -1574654.8      61.501186    
   1168000   297.86494     -1575053        0             -1574662.6      58.407495    
   1169000   299.11739     -1575056.4      0             -1574664.4      14.538128    
   1170000   299.90051     -1575053.5      0             -1574660.4      49.444695    
   1171000   295.95029     -1575058.9      0             -1574671        53.18567     
   1172000   302.18749     -1575056        0             -1574659.9      68.812845    
   1173000   299.58103     -1575052        0             -1574659.4      32.004735    
   1174000   302.40572     -1575053.2      0             -1574656.9      46.408476    
   1175000   300.45147     -1575054.7      0             -1574661        32.856552    
   1176000   298.39351     -1575057.2      0             -1574666.2      66.785594    
   1177000   300.29911     -1575056.5      0             -1574662.9      50.865924    
   1178000   299.31871     -1575056        0             -1574663.7      45.453961    
   1179000   303.45919     -1575053.2      0             -1574655.5      41.105876    
   1180000   297.14347     -1575048.4      0             -1574659        45.511119    
   1181000   298.494       -1575054.9      0             -1574663.7      43.491662    
   1182000   300.39857     -1575054.8      0             -1574661.1      23.184721    
   1183000   299.6651      -1575059.6      0             -1574666.8      33.405968    
   1184000   299.76014     -1575054        0             -1574661.1      32.939738    
   1185000   299.59343     -1575064.8      0             -1574672.1      42.695013    
   1186000   299.48047     -1575056.6      0             -1574664.1      54.330766    
   1187000   299.55843     -1575049.1      0             -1574656.5      5.4036928    
   1188000   296.91037     -1575059.1      0             -1574670        45.092535    
   1189000   298.35816     -1575055.9      0             -1574664.9      35.001232    
   1190000   296.66259     -1575048.3      0             -1574659.5      44.618917    
   1191000   292.6306      -1575056        0             -1574672.5      10.036789    
   1192000   298.50121     -1575059.1      0             -1574667.9      53.136127    
   1193000   303.10953     -1575049.7      0             -1574652.4      80.559975    
   1194000   302.53175     -1575051.8      0             -1574655.3      82.880596    
   1195000   297.62386     -1575051.7      0             -1574661.7      85.384645    
   1196000   301.18562     -1575046.1      0             -1574651.3      65.264722    
   1197000   298.46971     -1575047        0             -1574655.8      19.11015     
   1198000   303.66683     -1575059.3      0             -1574661.4      36.942121    
   1199000   303.88774     -1575054.8      0             -1574656.5      72.85113     
   1200000   301.1344      -1575062.5      0             -1574667.8      81.824932    
Loop time of 41751.4 on 1280 procs for 80000 steps with 10140 atoms

Performance: 0.166 ns/day, 144.970 hours/ns, 1.916 timesteps/s, 19.429 katom-step/s
100.0% CPU use with 1280 MPI tasks x 1 OpenMP threads

MPI task timing breakdown:
Section |  min time  |  avg time  |  max time  |%varavg| %total
---------------------------------------------------------------
Pair    | 0.12661    | 3053.7     | 41300      |11972.8 |  7.31
Bond    | 0.0031702  | 0.0061483  | 0.033878   |   6.3 |  0.00
Neigh   | 0.01217    | 0.082553   | 3.23       |  72.2 |  0.00
Comm    | 0.48599    | 1060.4     | 19039      |9060.3 |  2.54
Output  | 0.52246    | 5.2649     | 10.24      | 125.5 |  0.01
Modify  | 5.9877     | 37625      | 41739      |4608.4 | 90.12
Other   |            | 7.089      |            |       |  0.02

Nlocal:        7.92188 ave         191 max           0 min
Histogram: 1141 4 0 117 7 4 1 3 2 1
Nghost:        71.2047 ave        1212 max           0 min
Histogram: 1023 1 221 7 9 9 3 2 3 2
Neighs:              0 ave           0 max           0 min
Histogram: 1280 0 0 0 0 0 0 0 0 0
FullNghs:      742.244 ave       33773 max           0 min
Histogram: 1142 117 4 7 3 1 0 5 0 1

Total # of neighbors = 950072
Ave neighs/atom = 93.695464
Ave special neighs/atom = 0
Neighbor list builds = 3514
Dangerous builds = 0

write_restart nvt_prod.restart.*
System init for write_restart ...
write_data nvt_prod_final.lammps-data
System init for write_data ...

Total wall time: 11:36:21
