LAMMPS data file via write_data, version 4 Feb 2025, timestep = 1200000, units = metal

10140 atoms
3 atom types

0 154.00799999999998 xlo xhi
0 148.2 ylo yhi
0 151.07609208607428 zlo zhi

Masses

1 12.01099999691024
2 1.007999999740698
3 15.99899999588435

Atoms # full

7362 0 1 0 1.4374938504260868 3.5310265831615832 133.8578116359546 1 0 1
7301 0 1 0 0.6863784406311007 2.339787597998281 133.80774127740577 1 0 1
7371 0 1 0 2.8094567602557 3.507267936336879 133.873721379421 1 0 1
7320 0 1 0 3.499042291065123 2.275509363895881 133.88980621084065 1 0 1
7319 0 1 0 2.772065651605941 1.0769744384377364 134.07142839359133 1 0 1
7310 0 1 0 1.3761269729648007 1.095013373702121 134.05646664621082 1 0 1
7261 0 1 0 4.92472666037784 2.306325046057206 133.8867896012541 1 0 1
8051 0 1 0 7.04656186435957 3.5367345631422773 133.80895110662632 1 0 1
8001 0 1 0 9.14022860636389 2.3028064303177804 133.64490345823293 1 0 1
8000 0 1 0 7.746009614408044 2.311533108774034 133.79692110368433 1 0 1
7999 0 1 0 7.04323764604526 1.0251881994985814 133.74735580698376 1 0 1
8042 0 1 0 5.633797991830072 3.548647152951269 133.80297191638334 1 0 1
7990 0 1 0 5.647927361367085 1.0190340659400627 133.84001299707222 1 0 1
7363 0 1 0 0.7032226575408342 4.794797150608978 133.61436323149047 1 0 1
7374 0 1 0 3.5135333307410654 7.23807310722359 133.59893551295303 1 0 1
7375 0 1 0 2.8214611124880733 8.433427820240862 133.37040190151507 1 0 1
7365 0 1 0 0.6972385297453921 7.2471553006094 133.2926954924592 1 0 1
7364 0 1 0 1.3710381161247502 6.03338094416501 133.4876950492684 1 0 1
7373 0 1 0 2.8032599886176195 6.0005803059236555 133.6360842835208 1 0 1
7372 0 1 0 3.505109548191911 4.777735932427661 133.77141451814083 1 0 1
7366 0 1 0 1.432168889626124 8.429059958115737 133.20204746844226 1 0 1
7323 0 1 0 4.918313346478811 4.775772932736906 133.82506203676652 1 0 1
8054 0 1 0 7.794008587016501 7.209920081656404 133.71170187032587 1 0 1
8065 0 1 0 9.204755032030437 7.2080052329643305 133.65033265466232 1 0 1
8063 0 1 0 9.166032576131306 4.715564400412645 133.55498480169905 1 0 1
8053 0 1 0 7.053870521840673 5.9512515903396705 133.60859815205865 1 0 1
8052 0 1 0 7.775315712881799 4.69860075266103 133.61058347156998 1 0 1
8055 0 1 0 7.118204061793524 8.457967979096017 133.8374901613716 1 0 1
8046 0 1 0 5.66276774874354 8.424926113905391 133.77756384646838 1 0 1
8044 0 1 0 5.6593434758037695 5.929411724629542 133.72671651269252 1 0 1
7325 0 1 0 4.946812748228552 7.205268913200539 133.69139923780511 1 0 1
7379 0 1 0 2.845976786127666 13.364598125310625 133.3959069154588 1 0 1
7378 0 1 0 3.4944567911105735 12.133334529414316 133.52462498237253 1 0 1
7377 0 1 0 2.8296435546199654 10.900567353929148 133.2918653676377 1 0 1
7369 0 1 0 0.6697819645662425 12.128446271368928 133.18138942555643 1 0 1
7376 0 1 0 3.530485110020594 9.655710679828188 133.44057040515477 1 0 1
7368 0 1 0 1.3991364294514954 10.914650747961833 133.1481509727691 1 0 1
7367 0 1 0 0.7218050364953746 9.643434499881485 133.07230923661655 1 0 1
7370 0 1 0 1.3923380269576353 13.329322101126603 133.2238365659375 1 0 1
7329 0 1 0 4.913452600951827 12.130944821594577 133.71898035760253 1 0 1
7327 0 1 0 4.909402307080445 9.660495451611254 133.67207884550157 1 0 1
8048 0 1 0 5.586511254545979 10.886930191359186 133.7594744491774 1 0 1
8057 0 1 0 7.057236187137778 10.880233573363679 133.82248378657738 1 0 1
8058 0 1 0 7.819435367599124 12.150387980137562 133.86678560339263 1 0 1
8056 0 1 0 7.781366337825384 9.698393993530717 133.8100597737673 1 0 1
8069 0 1 0 9.266647693288931 12.158715558373938 133.78110648760162 1 0 1
8067 0 1 0 9.211497754341845 9.690991398605085 133.77578026716805 1 0 1
8059 0 1 0 7.063285940796534 13.399357493947699 133.79548337898245 1 0 1
8050 0 1 0 5.644877962682462 13.370437741660984 133.78548613113222 1 0 1
7422 0 1 0 1.3898347089820198 15.883779290855918 133.31224909267672 1 0 1
7423 0 1 0 0.5837606598046939 17.087419225233962 133.40693310228693 1 0 1
7431 0 1 0 2.8355484946854883 15.827385394454044 133.47247487109928 1 0 1
7380 0 1 0 3.5120966426695337 14.566383168780872 133.59681025722315 1 0 1
7432 0 1 0 3.522663510583325 17.092537364370397 133.60555542708175 1 0 1
7361 0 1 0 0.7054659940160892 14.583270188235424 133.23190050191778 1 0 1
7424 0 1 0 1.3653685322845661 18.30622133562929 133.49416664070998 1 0 1
7433 0 1 0 2.8028433778051585 18.31168090154669 133.58283126551856 1 0 1
8123 0 1 0 9.165543775528517 17.13138460900112 133.81531016167798 1 0 1
8111 0 1 0 7.095161883460157 15.8416799817258 133.8172016113551 1 0 1
8112 0 1 0 7.789753712594165 17.08600226141626 133.8207416896944 1 0 1
8102 0 1 0 5.662155825535283 15.858698206182343 133.78109635683987 1 0 1
7383 0 1 0 4.9659984052758945 17.094426023328687 133.70614476570393 1 0 1
8060 0 1 0 7.7919857312285465 14.610550153728004 133.80621395197824 1 0 1
7321 0 1 0 4.917458047976033 14.603942421061037 133.73799110832653 1 0 1
8061 0 1 0 9.205190573687418 14.63272147785863 133.75156377081703 1 0 1
8113 0 1 0 7.0683791791604955 18.34988918914204 133.8595561031629 1 0 1
8104 0 1 0 5.619349665817067 18.3455249329289 133.7861597869392 1 0 1
7425 0 1 0 0.6763773466346366 19.59998617985329 133.47025605822682 1 0 1
7426 0 1 0 1.348140801434338 20.815797291768014 133.56212481623743 1 0 1
7435 0 1 0 2.791469729721804 20.761476049884802 133.66939599874624 1 0 1
7434 0 1 0 3.5069581133620678 19.529830882191334 133.68237055706365 1 0 1
7436 0 1 0 3.478767444950264 21.983861678234067 133.68363311531772 1 0 1
7427 0 1 0 0.6288755418860028 22.018124793816085 133.52269201368316 1 0 1
7385 0 1 0 4.931685313519021 19.547024840241992 133.74149133129265 1 0 1
7387 0 1 0 4.914256592212286 22.02105541007082 133.78066715808683 1 0 1
8125 0 1 0 9.261728612548117 19.624582407284883 133.77912726502302 1 0 1
8127 0 1 0 9.25407899727258 22.0715876722012 133.64808157561708 1 0 1
8116 0 1 0 7.784446104158452 21.984972287657616 133.85937752235296 1 0 1
8106 0 1 0 5.609148080231454 20.781238684635362 133.8677975614198 1 0 1
8115 0 1 0 7.108982146992032 20.767020250426192 133.8510707821808 1 0 1
8114 0 1 0 7.835238477954962 19.576105160798182 133.93537895619409 1 0 1
7438 0 1 0 3.474548368158139 24.436533556650424 134.00577187685428 1 0 1
7430 0 1 0 1.3463321298460564 25.699653841064826 133.8619346572335 1 0 1
7439 0 1 0 2.7607218395617648 25.731585179454754 133.9528681878486 1 0 1
7428 0 1 0 1.3378124044158382 23.251889019952195 133.67378781840523 1 0 1
7437 0 1 0 2.7365116001065575 23.27277330902203 133.8139986763984 1 0 1
7440 0 1 0 3.4746682263315947 26.941739677703165 134.10062212748457 1 0 1
7421 0 1 0 0.6418700744829864 26.930634156083396 133.9080704439191 1 0 1
7429 0 1 0 0.5834256140779935 24.456955500433974 133.68828205419405 1 0 1
7381 0 1 0 4.933261967265157 26.982339167418495 134.17324465071866 1 0 1
7389 0 1 0 4.893909403925766 24.476709348639496 133.98523819181395 1 0 1
8117 0 1 0 7.080709812670284 23.240207279992376 133.8947560210807 1 0 1
8119 0 1 0 7.073211732852017 25.757188024106778 133.9283750847978 1 0 1
8110 0 1 0 5.63373841645402 25.742500647168647 134.0283078314059 1 0 1
8118 0 1 0 7.74254408445772 24.510504848981995 133.85677269474064 1 0 1
8108 0 1 0 5.638416921662453 23.25487503130155 133.87324818121567 1 0 1
8120 0 1 0 7.780355309769871 26.950954357954625 133.94217936596968 1 0 1
8129 0 1 0 9.188073484513097 24.511533691972364 133.73756938784885 1 0 1
8121 0 1 0 9.199657775510605 27.020781994077428 133.86906159786162 1 0 1
7491 0 1 0 2.750745223667848 28.144494718638544 134.0117873271321 1 0 1
7493 0 1 0 2.730252977723083 30.62557247528796 134.01564526038507 1 0 1
7484 0 1 0 1.314501819094315 30.677280925494713 133.89826380244992 1 0 1
7492 0 1 0 3.5235563953114184 29.379347683688522 134.0580031826051 1 0 1
7482 0 1 0 1.3050618196214407 28.17297419855986 133.91113837630235 1 0 1
7485 0 1 0 0.5773168943719954 31.9344783220732 133.86383602437098 1 0 1
7494 0 1 0 3.449441218106144 31.866350386480555 134.017316301091 1 0 1
7483 0 1 0 0.6191070414000286 29.442407367060778 133.90472556695536 1 0 1
7443 0 1 0 4.953767615205267 29.42924876930572 134.20845735172568 1 0 1
8183 0 1 0 9.19212353513683 29.520755565302558 134.01362510773555 1 0 1
8172 0 1 0 7.799032328622505 29.462556586894234 134.20042579101417 1 0 1
8171 0 1 0 7.064257549005008 28.22026343268476 134.15354225305643 1 0 1
8162 0 1 0 5.598738543001748 28.206970826124323 134.2448385346364 1 0 1
8173 0 1 0 7.0159609875491595 30.716048308559266 134.2056455067591 1 0 1
8164 0 1 0 5.584585523901129 30.72490341730398 134.19847914917088 1 0 1
7445 0 1 0 4.820550907767184 31.887561816879856 134.12182269315025 1 0 1
8174 0 1 0 7.704639842657309 31.951766567068724 134.10901744139247 1 0 1
8185 0 1 0 9.167643169320977 31.963391793608846 133.98790577623296 1 0 1
7496 0 1 0 3.4399759669970997 34.364177539841684 133.8861355196671 1 0 1
7495 0 1 0 2.7350312159273247 33.133070442413796 133.95804266530942 1 0 1
7486 0 1 0 1.2815503367660865 33.12701806259037 133.85241671698077 1 0 1
7497 0 1 0 2.7416055256378797 35.62861388469797 133.87045976513693 1 0 1
7488 0 1 0 1.2973099980148157 35.57031803621287 133.9415902513112 1 0 1
7487 0 1 0 0.5669435648878047 34.37687788317686 133.86397080015436 1 0 1
7489 0 1 0 0.599479933615989 36.826849570097615 133.9196978778726 1 0 1
7498 0 1 0 3.441054898827186 36.849270757025074 133.7568938859318 1 0 1
8166 0 1 0 5.522744487496183 33.217319644970885 134.05511168986985 1 0 1
8187 0 1 0 9.169389696076077 34.394172329635644 133.8564964086628 1 0 1
8175 0 1 0 6.982695008942394 33.180745644629894 134.00837217410498 1 0 1
8176 0 1 0 7.727782896776533 34.38528736031383 133.94177581266797 1 0 1
8168 0 1 0 5.607411629296346 35.670254854702236 133.78036075910475 1 0 1
8177 0 1 0 7.03192037080201 35.68261209826341 133.85495056696783 1 0 1
7447 0 1 0 4.872269447089226 34.406161989482236 133.87784368702344 1 0 1
8178 0 1 0 7.738257338956412 36.94210736052072 133.72715437176228 1 0 1
8189 0 1 0 9.149005122811865 36.91298459477015 133.72076188404992 1 0 1
7449 0 1 0 4.845136577038734 36.862823630290926 133.71775885465814 1 0 1
7551 0 1 0 2.696022543953395 40.53569648757265 133.61779590037068 1 0 1
7500 0 1 0 3.434690604742437 39.349349745841785 133.62672123068944 1 0 1
7499 0 1 0 2.7388732714638393 38.11977079701453 133.71986712556244 1 0 1
7490 0 1 0 1.299521189793596 38.1129457925722 133.7824757355365 1 0 1
7481 0 1 0 0.5580770445425516 39.32435710404993 133.83368733823326 1 0 1
7542 0 1 0 1.2675356855853357 40.55516009005674 133.77910230786767 1 0 1
7441 0 1 0 4.8385504567385595 39.34025911698019 133.5790092525731 1 0 1
8181 0 1 0 9.161279483369139 39.39214497829975 133.56797998201822 1 0 1
8222 0 1 0 5.571722453900334 40.64658360204401 133.48525837111566 1 0 1
8231 0 1 0 6.980551062975419 40.58621043259708 133.46259244267046 1 0 1
8179 0 1 0 7.025404885438468 38.09692253032366 133.58904480371015 1 0 1
8170 0 1 0 5.568129794837505 38.099153759442345 133.64137008414488 1 0 1
8180 0 1 0 7.741243678409406 39.34216085103591 133.51571974274154 1 0 1
7554 0 1 0 3.443253050884989 44.305056835112126 133.43372342494862 1 0 1
7553 0 1 0 2.740109361733717 43.07039754661703 133.50117680997005 1 0 1
7552 0 1 0 3.389360909312971 41.80559001169013 133.56945488986193 1 0 1
7555 0 1 0 2.726081570867419 45.52417677892811 133.44811441137134 1 0 1
7544 0 1 0 1.3280672565772105 43.06248424257594 133.65654497392532 1 0 1
7545 0 1 0 0.6007375193211928 44.32046814541793 133.48079579178074 1 0 1
7546 0 1 0 1.3003751318400083 45.54337787940459 133.50775994556594 1 0 1
7543 0 1 0 0.6135359952295231 41.84259845829813 133.72376558172454 1 0 1
7503 0 1 0 4.797395788236202 41.83167690818299 133.4383926672672 1 0 1
7505 0 1 0 4.886830786903747 44.332837358095134 133.3263917562869 1 0 1
8232 0 1 0 7.671918004983204 41.822312611540944 133.490889444561 1 0 1
8243 0 1 0 9.123883059275766 41.824071634711245 133.3935365212019 1 0 1
8234 0 1 0 7.70456540695095 44.28799402019959 133.30455905594863 1 0 1
8245 0 1 0 9.14140979491091 44.306601423037584 133.21250738109845 1 0 1
8233 0 1 0 6.9891043395342205 43.08719937911171 133.4042720959181 1 0 1
8224 0 1 0 5.541104135276473 43.07121668617057 133.36739311686242 1 0 1
8235 0 1 0 6.996378558391345 45.51580498103796 133.17284510332345 1 0 1
8226 0 1 0 5.586383432926062 45.5303096529293 133.09658306581707 1 0 1
7558 0 1 0 3.4387349760541346 49.268270520790104 133.2127410176849 1 0 1
7557 0 1 0 2.727664188608368 48.03101175549646 133.42106304226274 1 0 1
7556 0 1 0 3.4207715534387115 46.8040006183371 133.30021310620683 1 0 1
7559 0 1 0 2.729782346502266 50.518363355923256 133.19235429265495 1 0 1
7547 0 1 0 0.5981733054853602 46.80787663898967 133.43271528316808 1 0 1
7548 0 1 0 1.3224855145968357 48.01366675653801 133.46304022153174 1 0 1
7549 0 1 0 0.5629357238350686 49.23727516282685 133.3285793672457 1 0 1
7550 0 1 0 1.3347131903327087 50.46953641936307 133.14448607008592 1 0 1
7507 0 1 0 4.824880339785822 46.77038802673619 133.1835622888543 1 0 1
8247 0 1 0 9.115483463689234 46.76560719328032 133.13814705807368 1 0 1
8237 0 1 0 6.979652587897778 47.99802319444619 133.15320478691078 1 0 1
8236 0 1 0 7.697206118244767 46.75487165862288 133.1267938047695 1 0 1
8249 0 1 0 9.07797589964875 49.22144811378614 132.97292026361353 1 0 1
8238 0 1 0 7.6845573386034 49.24067907461909 133.02850091193596 1 0 1
7509 0 1 0 4.865639189505911 49.23719420808245 133.1696873743181 1 0 1
8228 0 1 0 5.526444692833035 48.04342505403092 133.15213830605262 1 0 1
8230 0 1 0 5.563207577924341 50.486286254198795 133.08870154781417 1 0 1
8239 0 1 0 6.96259060872282 50.468908033910104 133.084820032666 1 0 1
7611 0 1 0 2.7027308910015644 52.92310439084509 133.08690340023773 1 0 1
7612 0 1 0 3.4847122723825383 54.173984578512126 133.14991996633552 1 0 1
7541 0 1 0 0.5690998057903688 51.67356015383096 133.1902592905467 1 0 1
7560 0 1 0 3.4600425726229354 51.72788908606172 133.09606017302872 1 0 1
7602 0 1 0 1.319592309611307 52.920924009102734 133.09161562363457 1 0 1
7603 0 1 0 0.6074560892362761 54.13825230692654 133.13890810689074 1 0 1
7613 0 1 0 2.800812553833779 55.37349602999524 133.1794177825548 1 0 1
7604 0 1 0 1.37649060573574 55.3426495631908 133.11839108448845 1 0 1
8293 0 1 0 7.032748927790575 55.44112046751884 133.3878356022918 1 0 1
8282 0 1 0 5.6038901089891935 52.94116806265051 133.1980393388031 1 0 1
7563 0 1 0 4.900838191956259 54.18218929172825 133.23269443285565 1 0 1
8241 0 1 0 9.135547410006719 51.72748561345157 133.08312846858973 1 0 1
8303 0 1 0 9.165392567211164 54.236069339491245 133.26653275979038 1 0 1
7501 0 1 0 4.899832324789728 51.69391678773141 133.09709675757662 1 0 1
8291 0 1 0 7.013077951104515 52.970963153154834 133.21299773799754 1 0 1
8292 0 1 0 7.724765917554704 54.19943302076004 133.3461852537362 1 0 1
8240 0 1 0 7.698484842799642 51.69965802545354 133.13133163680894 1 0 1
8284 0 1 0 5.601385053799486 55.398097608853476 133.32853652144817 1 0 1
7615 0 1 0 2.7969413909487963 57.842229160824644 133.33611399665767 1 0 1
7606 0 1 0 1.36892328533965 57.83291099237101 133.3529414915526 1 0 1
7614 0 1 0 3.5139471711595287 56.651758818978955 133.20240351049748 1 0 1
7607 0 1 0 0.6670685280979628 59.06105892403962 133.25588415103215 1 0 1
7616 0 1 0 3.4854952144721336 59.09950050030909 133.3169247900275 1 0 1
7605 0 1 0 0.6694351027862814 56.61224052975508 133.20944365393865 1 0 1
7567 0 1 0 4.898354045051605 59.10795907310341 133.41808139947855 1 0 1
8305 0 1 0 9.215731586751325 56.700419317093356 133.4320357475403 1 0 1
8294 0 1 0 7.729196714780903 56.676389702172784 133.483791345236 1 0 1
8286 0 1 0 5.61716387841675 57.876259996370116 133.3690289030826 1 0 1
8295 0 1 0 7.04760948011021 57.922021446471085 133.40374479729098 1 0 1
8296 0 1 0 7.733173824830325 59.196576726017085 133.6200652151904 1 0 1
8307 0 1 0 9.213139277534886 59.189733017913554 133.5666908567183 1 0 1
7565 0 1 0 4.9089660978636545 56.66553177574104 133.26574073175138 1 0 1
7608 0 1 0 1.3662160060105113 60.326138040197065 133.25239772996017 1 0 1
7609 0 1 0 0.6637290773676199 61.55758765225046 133.3296553394374 1 0 1
7610 0 1 0 1.367684031020915 62.78661218497609 133.4109548037016 1 0 1
7619 0 1 0 2.7539112033810236 62.8152359360335 133.3837635206364 1 0 1
7618 0 1 0 3.493150090254362 61.547529332935234 133.414455445934 1 0 1
7617 0 1 0 2.8160117630733534 60.316997105638556 133.22855653164444 1 0 1
7601 0 1 0 0.6156913675392842 64.01438753518718 133.36647333022538 1 0 1
7620 0 1 0 3.4645664216986196 64.0574827033758 133.44851134552917 1 0 1
7569 0 1 0 4.876461904387582 61.61771798041798 133.51216158530835 1 0 1
8297 0 1 0 7.019751574103198 60.41038437497063 133.66697338319253 1 0 1
8288 0 1 0 5.6016725253553945 60.37100122748762 133.53818031678546 1 0 1
8298 0 1 0 7.742584044482563 61.59355912972538 133.602169044614 1 0 1
8309 0 1 0 9.163596975326062 61.627945015878 133.52307685140832 1 0 1
8299 0 1 0 7.023862187358536 62.838154026400574 133.64229532281624 1 0 1
8290 0 1 0 5.592645851267227 62.86146997830519 133.54348225733779 1 0 1
7561 0 1 0 4.86932357356612 64.08946907259248 133.48936620549037 1 0 1
8300 0 1 0 7.720761624611132 64.08939562896695 133.67550528646464 1 0 1
8301 0 1 0 9.153677990250207 64.08637313792718 133.56416610799016 1 0 1
7663 0 1 0 0.5967917276812899 66.49600346131662 133.38957213706277 1 0 1
7662 0 1 0 1.3282255450315663 65.26665504623509 133.36776307544338 1 0 1
7671 0 1 0 2.772196644004266 65.27879058792628 133.39113285582675 1 0 1
7664 0 1 0 1.3631519981837772 67.72963964169493 133.38189128677323 1 0 1
7673 0 1 0 2.764554280947179 67.77213144874835 133.42955074503573 1 0 1
7672 0 1 0 3.486497796887428 66.52567207020661 133.35588735026346 1 0 1
7665 0 1 0 0.6657920685587503 68.951538018637 133.39863872502102 1 0 1
7674 0 1 0 3.496584726804975 69.03206163018048 133.4539559766203 1 0 1
7625 0 1 0 4.866052242688096 69.02081684925662 133.54163031806158 1 0 1
7623 0 1 0 4.918063700000539 66.58045639350425 133.52120733339993 1 0 1
8363 0 1 0 9.203613354186777 66.54503569497291 133.92724646993003 1 0 1
8352 0 1 0 7.7136921386193915 66.50938825480378 133.75707805244645 1 0 1
8342 0 1 0 5.573043291972514 65.34718371058482 133.6086044061535 1 0 1
8351 0 1 0 7.012530456383812 65.31742994591976 133.73180776639154 1 0 1
8344 0 1 0 5.606082448736752 67.79587698256488 133.6736036946191 1 0 1
8353 0 1 0 7.0003132003834025 67.80840117561124 133.74583281681026 1 0 1
8365 0 1 0 9.193225686090496 68.95858517755164 133.81203266472102 1 0 1
8354 0 1 0 7.803975183894804 69.00918116311341 133.69992475693812 1 0 1
7666 0 1 0 1.3781084686453553 70.1726236471945 133.36301261780952 1 0 1
7667 0 1 0 0.6852412480262958 71.39366895220253 133.24097342346457 1 0 1
7675 0 1 0 2.7970715162356643 70.2360062914266 133.35365038029767 1 0 1
7668 0 1 0 1.3372023646094848 72.65953776771663 133.2839201061111 1 0 1
7676 0 1 0 3.5195811560248873 71.46349487108252 133.4359692709862 1 0 1
7677 0 1 0 2.7214246505207913 72.67061518843563 133.44728490267389 1 0 1
7678 0 1 0 3.455551824551249 73.93522226123495 133.58383628681224 1 0 1
7669 0 1 0 0.6503593140742892 73.93749875623557 133.3212266520621 1 0 1
7629 0 1 0 4.911796833758909 73.95545932514162 133.58573141333363 1 0 1
7627 0 1 0 4.966531900183377 71.5200524653076 133.514692934616 1 0 1
8356 0 1 0 7.778265839096446 71.49270014720697 133.61589227494613 1 0 1
8346 0 1 0 5.6224185799860305 70.23569701293384 133.48193810294703 1 0 1
8357 0 1 0 7.103792595382498 72.72580474280008 133.49539367241346 1 0 1
8348 0 1 0 5.650791598639304 72.73771401874774 133.53714017175514 1 0 1
8355 0 1 0 7.070779396860614 70.21808367449951 133.52103858192092 1 0 1
8367 0 1 0 9.213410194273557 71.51321317763076 133.72547553879454 1 0 1
8358 0 1 0 7.79439044211591 73.9707141078822 133.55229475345106 1 0 1
8369 0 1 0 9.22939748715661 73.96531872751987 133.65452735472027 1 0 1
7679 0 1 0 2.7334623144030092 75.17385472893005 133.56055028570918 1 0 1
7670 0 1 0 1.3207925700865657 75.21220215838007 133.37670041777926 1 0 1
7661 0 1 0 0.5851061667239763 76.41132757690137 133.34563006788173 1 0 1
7680 0 1 0 3.4734366944868094 76.38058373313085 133.59024156067974 1 0 1
7722 0 1 0 1.37504586043862 77.65536574601619 133.44028069205265 1 0 1
7731 0 1 0 2.8422236146747033 77.6142927416171 133.50690555702255 1 0 1
7621 0 1 0 4.925347693301244 76.39771554381502 133.52815874500214 1 0 1
8350 0 1 0 5.675794632702586 75.19509994640015 133.509100531217 1 0 1
8359 0 1 0 7.092881921215914 75.17185046981471 133.49902688111004 1 0 1
8361 0 1 0 9.221207404378125 76.43937964291888 133.45979351175703 1 0 1
8402 0 1 0 5.67474672651894 77.67237907209598 133.55407855791125 1 0 1
8360 0 1 0 7.773602816291539 76.41488411003206 133.47754674693655 1 0 1
8411 0 1 0 7.090089509319572 77.67532161573695 133.50914526174242 1 0 1
7724 0 1 0 1.3654030508279404 80.12553341064252 133.38914811052646 1 0 1
7723 0 1 0 0.6866278976113531 78.87152057014505 133.3011258244146 1 0 1
7725 0 1 0 0.5972406101198868 81.34622010316534 133.35200665140476 1 0 1
7733 0 1 0 2.795256781271646 80.16315173147343 133.38097936341967 1 0 1
7732 0 1 0 3.5428481400515253 78.8856435839855 133.45612928109477 1 0 1
7734 0 1 0 3.469259049503355 81.40281321293237 133.3009107212794 1 0 1
7735 0 1 0 2.7329753732114326 82.65679914270342 133.24703297941008 1 0 1
7726 0 1 0 1.313098845541626 82.59710952336575 133.25716382964686 1 0 1
7683 0 1 0 4.9596929047513605 78.9512068939188 133.61645608256376 1 0 1
7685 0 1 0 4.9018046288461505 81.40545507690899 133.35896762344848 1 0 1
8423 0 1 0 9.271072233477817 78.90006037791554 133.2235160765263 1 0 1
8412 0 1 0 7.805510969947309 78.91490843057213 133.32894696595582 1 0 1
8413 0 1 0 7.075043864574981 80.13083850035287 133.38747797132496 1 0 1
8404 0 1 0 5.673559811678819 80.18676267758809 133.43414133064434 1 0 1
8414 0 1 0 7.7692884499499275 81.35445475676782 133.20231369649196 1 0 1
8425 0 1 0 9.175569585346045 81.40669430674646 133.22083051672013 1 0 1
8406 0 1 0 5.650530203319994 82.63829187164863 133.196944134793 1 0 1
8415 0 1 0 7.080188414040078 82.6292311704732 133.09373303154706 1 0 1
7727 0 1 0 0.6089236860123893 83.85516346437308 133.30224248845425 1 0 1
7736 0 1 0 3.5007258900999916 83.82444952185226 133.24554909594661 1 0 1
7738 0 1 0 3.5499549673103354 86.32188477855728 133.19137941484433 1 0 1
7737 0 1 0 2.8292665638659225 85.06856556016938 133.19350161674882 1 0 1
7729 0 1 0 0.671555715738436 86.28099697130524 133.27377300764095 1 0 1
7728 0 1 0 1.379615308252359 85.08776616566429 133.2922230610284 1 0 1
7739 0 1 0 2.7989339519454752 87.4989856707011 133.28798428363396 1 0 1
7730 0 1 0 1.368006108525051 87.49786146411657 133.246686338749 1 0 1
7687 0 1 0 4.986593315550969 83.87903854662972 133.13143459123629 1 0 1
7689 0 1 0 4.974825759762228 86.33925546177137 133.08555764940567 1 0 1
8427 0 1 0 9.237914001496847 83.84415499857846 133.28252721342787 1 0 1
8416 0 1 0 7.836601958290748 83.8049251400237 133.09007763631888 1 0 1
8429 0 1 0 9.322752763746658 86.2987986984725 133.3267926124515 1 0 1
8417 0 1 0 7.155228992607931 85.07623004532724 133.1256260876808 1 0 1
8408 0 1 0 5.705842384223276 85.09753161376196 133.09192860270477 1 0 1
8418 0 1 0 7.846260889146987 86.28881005108491 133.29147124396837 1 0 1
8410 0 1 0 5.693386930519716 87.52498188397574 133.21017561875777 1 0 1
8419 0 1 0 7.130692766551835 87.52133296587638 133.25849120709807 1 0 1
7721 0 1 0 0.7022912322382666 88.77966458647518 133.2776799896896 1 0 1
7783 0 1 0 0.726372406373349 91.22218088658344 133.39201243254112 1 0 1
7782 0 1 0 1.4499338936919155 89.96038111124065 133.3178485483359 1 0 1
7791 0 1 0 2.8854683187422245 89.9955515232627 133.2019999046596 1 0 1
7740 0 1 0 3.554990861019256 88.74846747666126 133.26064134969064 1 0 1
7792 0 1 0 3.5660852486070036 91.22152246238905 133.17237488671523 1 0 1
7793 0 1 0 2.814635473411879 92.42022321842809 133.2388750704238 1 0 1
7784 0 1 0 1.4053809941658804 92.46005308859077 133.31544291701275 1 0 1
8420 0 1 0 7.832857308350732 88.75642544339235 133.27003223963936 1 0 1
8462 0 1 0 5.678873071554826 89.95933895218131 133.0872617505399 1 0 1
8421 0 1 0 9.263381507633627 88.78542791559575 133.3261068444363 1 0 1
7743 0 1 0 5.004894490192794 91.21673766575752 133.17231307951596 1 0 1
7681 0 1 0 4.956456695179149 88.7529402143672 133.16783462155172 1 0 1
8471 0 1 0 7.085661345340232 90.00103442154817 133.1209581332911 1 0 1
8472 0 1 0 7.780336117174195 91.23128868933154 133.1902031677828 1 0 1
8483 0 1 0 9.246260672506022 91.23479397859023 133.2694460537523 1 0 1
8473 0 1 0 7.113712229784317 92.46780237401748 133.10921898965347 1 0 1
8464 0 1 0 5.659949334979383 92.50344412340105 133.13092416215713 1 0 1
7785 0 1 0 0.6657510533795622 93.68236520429302 133.24613687105403 1 0 1
7795 0 1 0 2.7720609332672668 94.94156237645882 133.14878559342995 1 0 1
7794 0 1 0 3.4846087771229275 93.70213872832915 133.2571836999241 1 0 1
7786 0 1 0 1.3412218164732035 94.92589858028653 133.08662801263588 1 0 1
7787 0 1 0 0.6162873809608554 96.14282071934828 132.93143326619503 1 0 1
7796 0 1 0 3.5084678276176033 96.21803272028514 133.06945094675845 1 0 1
7745 0 1 0 4.922181156451187 93.72407047541988 133.1599369971531 1 0 1
7747 0 1 0 4.9581813925455585 96.2709232709982 132.9503459291501 1 0 1
8466 0 1 0 5.644668245481173 94.96265141105502 133.08528293429663 1 0 1
8487 0 1 0 9.265899889660947 96.17641636553734 133.30928933205394 1 0 1
8474 0 1 0 7.823401051897652 93.69036130696078 133.24206138834643 1 0 1
8485 0 1 0 9.217395462667952 93.6645098926301 133.42344966116883 1 0 1
8475 0 1 0 7.055901063458489 94.92762708625267 133.22813125669074 1 0 1
8476 0 1 0 7.773185710660868 96.14981083039302 133.24168961516258 1 0 1
7781 0 1 0 0.6487489746517339 101.13156986945052 132.53876025030848 1 0 1
7789 0 1 0 0.6206677750653761 98.66627749595861 132.78116589335872 1 0 1
7790 0 1 0 1.3805640811614481 99.9216726581323 132.73961057722565 1 0 1
7799 0 1 0 2.8371237893447065 99.90297120967449 132.74588804330773 1 0 1
7800 0 1 0 3.5558715064621342 101.13544687035684 132.75791723869634 1 0 1
7788 0 1 0 1.3372663485781782 97.39057173811184 132.7387499895069 1 0 1
7797 0 1 0 2.7281651988605806 97.4312579843988 132.92092356492714 1 0 1
7798 0 1 0 3.4971757664788177 98.6279009072249 132.84236340344836 1 0 1
7741 0 1 0 4.967872761099282 101.15365156959008 132.75641578942685 1 0 1
7749 0 1 0 4.907574239237803 98.60016702056237 132.79071093136312 1 0 1
8479 0 1 0 7.08951787765943 99.86565122894658 132.8724227448948 1 0 1
8489 0 1 0 9.222434749651471 98.65931731366453 133.08825737124778 1 0 1
8470 0 1 0 5.659554263013135 99.91069539396511 132.71752021303115 1 0 1
8481 0 1 0 9.249339266701831 101.08316754889945 133.23162031707596 1 0 1
8480 0 1 0 7.817715787528495 101.1169737276673 133.0225735625499 1 0 1
8477 0 1 0 7.107513430333705 97.38450709897415 133.03459721893842 1 0 1
8468 0 1 0 5.681937469116038 97.41689319386069 132.8328393511465 1 0 1
8478 0 1 0 7.7843882808144675 98.61719096627124 133.0174252222875 1 0 1
7844 0 1 0 1.353693818157329 104.8126631405369 132.65360457325352 1 0 1
7842 0 1 0 1.3540358585914796 102.32549195495113 132.6809038321161 1 0 1
7843 0 1 0 0.6410064739701317 103.58345155760149 132.55952855005825 1 0 1
7852 0 1 0 3.5039753410094314 103.55329613286098 132.74288216292643 1 0 1
7853 0 1 0 2.802220080309749 104.75228589460806 132.76851965607102 1 0 1
7851 0 1 0 2.7549119174543706 102.308949480281 132.76509943820477 1 0 1
7845 0 1 0 0.6881645914326224 106.01452616420599 132.7119802234338 1 0 1
7854 0 1 0 3.518838581442073 106.00110515560532 132.8529568965789 1 0 1
7803 0 1 0 4.8998346364939485 103.59361238522565 132.88311929101835 1 0 1
8524 0 1 0 5.668563453002652 104.81279438248096 132.96793897412564 1 0 1
7805 0 1 0 4.957337255170338 106.03535523031717 133.01499043808377 1 0 1
8531 0 1 0 7.139613187856014 102.36489066659888 133.06558692795602 1 0 1
8543 0 1 0 9.28649921891612 103.56144903274455 133.2821780161597 1 0 1
8522 0 1 0 5.732060115922862 102.33685519323002 132.9553020694864 1 0 1
8532 0 1 0 7.834846194999819 103.56058130441154 133.189185617561 1 0 1
8533 0 1 0 7.092189089278166 104.81777084817394 133.12180013233262 1 0 1
8534 0 1 0 7.778946745455335 106.08670996678326 133.25935637565252 1 0 1
8545 0 1 0 9.208662851005395 106.0557778103897 133.30375845727104 1 0 1
7847 0 1 0 0.6645419271502605 108.49848799647994 132.7163821917832 1 0 1
7857 0 1 0 2.7855863571542705 109.76002183206504 132.99952576314473 1 0 1
7846 0 1 0 1.341426563446864 107.27765132157558 132.69113104467482 1 0 1
7856 0 1 0 3.47736888991234 108.48632195752297 133.0561771517898 1 0 1
7855 0 1 0 2.777759494843195 107.24373643481734 132.82815901060306 1 0 1
7848 0 1 0 1.35498461879519 109.76477126888085 132.81332168216858 1 0 1
7858 0 1 0 3.5245554406789243 111.00254147093457 133.09483092887862 1 0 1
7849 0 1 0 0.6825390347736835 111.01615712726476 132.88709963757046 1 0 1
8536 0 1 0 7.846805913742721 108.52395939071641 133.4633951416282 1 0 1
8535 0 1 0 7.036426998487132 107.31140980931964 133.36379816685206 1 0 1
8547 0 1 0 9.274696182570429 108.52827470918612 133.38715859596095 1 0 1
8528 0 1 0 5.604355914230023 109.73560762555822 133.3609052581554 1 0 1
8526 0 1 0 5.623711003044343 107.29000745275525 133.27641974296415 1 0 1
7807 0 1 0 4.910604523851462 108.49092369035414 133.18562802975458 1 0 1
8537 0 1 0 7.0610532566217366 109.74009820813721 133.44094107855085 1 0 1
8538 0 1 0 7.810601522376957 110.93875923617219 133.59962831956088 1 0 1
8549 0 1 0 9.18291123625965 110.95099936920161 133.59435833473935 1 0 1
7809 0 1 0 4.961239944418496 111.00986454547326 133.23974492196322 1 0 1
7850 0 1 0 1.379362643755022 112.23032530656813 133.0016488504525 1 0 1
7859 0 1 0 2.795704892362126 112.19888106319569 133.2002370891417 1 0 1
7911 0 1 0 2.8190930960087415 114.75272822769544 133.2518098714619 1 0 1
7841 0 1 0 0.6734404539025736 113.49652264546081 133.0453720668522 1 0 1
7860 0 1 0 3.5073415669398 113.46728644821805 133.35532166143997 1 0 1
7902 0 1 0 1.4047457123000155 114.72666818637349 133.06888637095534 1 0 1