LAMMPS (4 Feb 2025)
OMP_NUM_THREADS environment is not set. Defaulting to 1 thread. (src/comm.cpp:99)
  using 1 OpenMP thread(s) per MPI task
# LAMMPS script for running NVT simulation

units       metal
dimension   3
boundary    p p p
atom_style  full
atom_modify map yes

newton      on

read_data   ../start.lammps-data
Reading data file ...
  orthogonal box = (0 0 0) to (157.08816 151.15815 151.07317)
  12 by 12 by 8 MPI processor grid
  reading atoms ...
  11640 atoms
  reading velocities ...
  11640 velocities
Finding 1-2 1-3 1-4 neighbors ...
  special bond factors lj:    0        0        0       
  special bond factors coul:  0        0        0       
     0 = max # of 1-2 neighbors
     0 = max # of 1-3 neighbors
     0 = max # of 1-4 neighbors
     1 = max # of special neighbors
  special bonds CPU = 6.065 seconds
  read_data CPU = 6.265 seconds

pair_style  symmetrix/mace
pair_coeff  * * ../../../00-common/models/ch2o-dens-inv_swa-1-6-8.json C H O
Loading MACE model from '../../../00-common/models/ch2o-dens-inv_swa-1-6-8.json' ... success
  mapping LAMMPS type 1 (C) to MACE type 1
  mapping LAMMPS type 2 (H) to MACE type 0
  mapping LAMMPS type 3 (O) to MACE type 2

variable t equal step

group graphene type 1
8640 atoms in group graphene
group H2O type 2 3
3000 atoms in group H2O

thermo 1000

######### NVT equilibration for 80 ps #############

dump DUMP1 all atom 100 nvt_equi.lammpstrj
timestep 0.001
fix NVT1 graphene nvt temp 300 300 0.1
fix NVT2 H2O nvt temp 300 300 0.1
run 80000
Neighbor list info ...
  update: every = 1 steps, delay = 0 steps, check = yes
  max neighbors/atom: 2000, page size: 100000
  master list distance cutoff = 8
  ghost atom cutoff = 8
  binsize = 4, bins = 40 38 38
  1 neighbor lists, perpetual/occasional/extra = 1 0 0
  (1) pair symmetrix/mace, perpetual
      attributes: full, newton on
      pair build: full/bin
      stencil: full/bin/3d
      bin: standard
Per MPI rank memory allocation (min/avg/max) = 5.922 | 6.214 | 8.506 Mbytes
   Step          Temp          E_pair         E_mol          TotEng         Press     
         0   78.173347     -1810015.2      0             -1809897.6     -3059.3115    
      1000   81.807038     -1810015.2      0             -1809892.1     -3087.5742    
      2000   138.98191     -1809939.3      0             -1809730.2     -3292.8826    
      3000   298.03051     -1809727.9      0             -1809279.5     -3564.1812    
      4000   322.30825     -1809726.1      0             -1809241.2     -3473.4568    
      5000   290.11741     -1809707.6      0             -1809271.1     -3432.8729    
      6000   301.89515     -1809708.2      0             -1809254       -3388.3123    
      7000   307.986       -1809708.9      0             -1809245.6     -3387.0045    
      8000   297.72278     -1809718.9      0             -1809271       -3340.7661    
      9000   296.22474     -1809707.5      0             -1809261.9     -3351.7524    
     10000   301.67206     -1809719.5      0             -1809265.6     -3276.9689    
     11000   296.41313     -1809716.8      0             -1809270.8     -3284.9605    
     12000   300.84967     -1809713.3      0             -1809260.6     -3266.6203    
     13000   304.45965     -1809718.7      0             -1809260.6     -3248.663     
     14000   300.37396     -1809717.9      0             -1809266       -3219.2679    
     15000   297.92304     -1809725.1      0             -1809276.9     -3192.2036    
     16000   304.51345     -1809725.4      0             -1809267.3     -3180.7638    
     17000   302.08794     -1809724.9      0             -1809270.4     -3155.044     
     18000   301.91015     -1809721.1      0             -1809266.9     -3160.3546    
     19000   299.87576     -1809732        0             -1809280.9     -3157.9906    
     20000   300.67292     -1809725.3      0             -1809273       -3125.9954    
     21000   303.84873     -1809725.5      0             -1809268.4     -3104.9997    
     22000   299.80895     -1809726.4      0             -1809275.4     -3134.446     
     23000   297.99465     -1809729.7      0             -1809281.4     -3114.5289    
     24000   299.88991     -1809726.5      0             -1809275.3     -3112.0968    
     25000   301.15768     -1809731        0             -1809277.9     -3098.7892    
     26000   300.67498     -1809727.6      0             -1809275.2     -3079.8837    
     27000   302.36637     -1809734.4      0             -1809279.5     -3085.689     
     28000   300.23694     -1809735.4      0             -1809283.7     -3065.1326    
     29000   301.50126     -1809735.1      0             -1809281.5     -3052.5269    
     30000   302.02288     -1809733        0             -1809278.6     -3064.7671    
     31000   298.76402     -1809734.2      0             -1809284.8     -3046.4347    
     32000   299.82615     -1809739.4      0             -1809288.3     -3055.3759    
     33000   303.92735     -1809735.6      0             -1809278.3     -3031.9085    
     34000   301.72252     -1809736.1      0             -1809282.1     -3035.4862    
     35000   297.42594     -1809739.5      0             -1809292       -3021.5445    
     36000   300.31        -1809732.1      0             -1809280.3     -3029.7102    
     37000   300.89649     -1809733.4      0             -1809280.7     -3026.8951    
     38000   300.1003      -1809739.5      0             -1809288       -3013.2242    
     39000   296.92683     -1809735.6      0             -1809288.9     -3032.4194    
     40000   302.94691     -1809734.7      0             -1809278.9     -3021.8527    
     41000   298.49698     -1809736.3      0             -1809287.2     -3009.9765    
     42000   299.31725     -1809731.8      0             -1809281.5     -2998.2489    
     43000   299.72475     -1809731.8      0             -1809280.9     -2996.0016    
     44000   301.39289     -1809745.9      0             -1809292.4     -2989.9804    
     45000   302.16172     -1809740.8      0             -1809286.2     -2998.3581    
     46000   301.54881     -1809737.5      0             -1809283.8     -3001.5261    
     47000   294.1777      -1809735.7      0             -1809293.1     -3005.7327    
     48000   301.13329     -1809738.1      0             -1809285.1     -2993.5112    
     49000   302.27202     -1809738.9      0             -1809284.2     -3008.5528    
     50000   302.43421     -1809736.2      0             -1809281.2     -2995.8413    
     51000   302.38732     -1809737.2      0             -1809282.2     -3001.6778    
     52000   300.72222     -1809741.3      0             -1809288.8     -2997.4696    
     53000   299.6244      -1809735.8      0             -1809285       -3001.9147    
     54000   299.49521     -1809739.6      0             -1809289.1     -2988.9108    
     55000   302.02442     -1809740.9      0             -1809286.5     -3017.3241    
     56000   298.70354     -1809740.1      0             -1809290.7     -2982.4029    
     57000   300.65862     -1809733.8      0             -1809281.5     -2986.9498    
     58000   302.42729     -1809732.4      0             -1809277.4     -2996.3038    
     59000   301.36542     -1809738.5      0             -1809285.1     -2981.9715    
     60000   300.12759     -1809736.4      0             -1809284.9     -2979.3374    
     61000   301.96925     -1809740.6      0             -1809286.3     -2980.2313    
     62000   299.87418     -1809738.7      0             -1809287.5     -2979.4859    
     63000   299.53455     -1809737.3      0             -1809286.7     -2987.1004    
     64000   299.75853     -1809742.4      0             -1809291.5     -2986.7679    
     65000   298.25195     -1809741.1      0             -1809292.4     -2976.177     
     66000   299.99808     -1809745.9      0             -1809294.6     -2994.6744    
     67000   298.52374     -1809743.2      0             -1809294       -2970.7347    
     68000   298.64989     -1809744.6      0             -1809295.3     -2962.2037    
     69000   301.40101     -1809737.9      0             -1809284.4     -2988.3226    
     70000   302.64148     -1809741.1      0             -1809285.8     -2971.8424    
     71000   297.99622     -1809742.8      0             -1809294.4     -2964.0431    
     72000   297.85558     -1809745.5      0             -1809297.3     -2964.3323    
     73000   298.82082     -1809735.2      0             -1809285.6     -2991.3177    
     74000   301.35075     -1809741.2      0             -1809287.8     -2975.379     
     75000   300.46041     -1809741.8      0             -1809289.8     -2970.1341    
     76000   303.06018     -1809744        0             -1809288       -2958.1589    
     77000   301.21071     -1809743        0             -1809289.8     -2965.2363    
     78000   301.03646     -1809740.7      0             -1809287.8     -2961.8105    
     79000   298.08235     -1809741.5      0             -1809293       -2965.606     
     80000   295.96394     -1809740.1      0             -1809294.9     -2961.1432    
Loop time of 54895.9 on 1152 procs for 80000 steps with 11640 atoms

Performance: 0.126 ns/day, 190.611 hours/ns, 1.457 timesteps/s, 16.963 katom-step/s
100.0% CPU use with 1152 MPI tasks x 1 OpenMP threads

MPI task timing breakdown:
Section |  min time  |  avg time  |  max time  |%varavg| %total
---------------------------------------------------------------
Pair    | 0.15975    | 4440.4     | 44819      |12851.7 |  8.09
Bond    | 0.0032107  | 0.0072774  | 0.041439   |   7.7 |  0.00
Neigh   | 0.017457   | 0.12367    | 2.9094     |  83.7 |  0.00
Comm    | 0.53261    | 1826.4     | 20063      |8742.5 |  3.33
Output  | 0.92994    | 5.1458     | 9.6599     | 115.0 |  0.01
Modify  | 1644.5     | 48617      | 54883      |5313.5 | 88.56
Other   |            | 7.038      |            |       |  0.01

Nlocal:        10.1042 ave         315 max           0 min
Histogram: 1003 125 8 3 1 3 1 0 3 5
Nghost:        87.7144 ave        1521 max           0 min
Histogram: 847 240 30 18 7 3 2 2 1 2
Neighs:              0 ave           0 max           0 min
Histogram: 1152 0 0 0 0 0 0 0 0 0
FullNghs:      1037.89 ave       63898 max           0 min
Histogram: 1131 5 3 4 1 0 1 3 1 3

Total # of neighbors = 1195646
Ave neighs/atom = 102.71873
Ave special neighs/atom = 0
Neighbor list builds = 3831
Dangerous builds = 0

write_restart nvt_equi.restart.*
System init for write_restart ...
write_data nvt_equi_final.lammps-data
System init for write_data ...

Total wall time: 15:15:26
