LAMMPS data file via write_data, version 4 Feb 2025, timestep = 50000, units = metal

19140 atoms
3 atom types

0 154.00799999999998 xlo xhi
0 148.2 ylo yhi
0 151.07609208607428 zlo zhi

Masses

1 12.01099999691024
2 1.007999999740698
3 15.99899999588435

Atoms # full

10 0 1 0 8.4487378740645 2.0414456710054125 21.087891996087585 0 0 0
7978 0 1 0 6.321639079332945 0.8142951890701884 21.098905989288887 1 0 0
7929 0 1 0 7.756875776128351 0.817131449107579 21.12258283004376 1 0 0
7921 0 1 0 7.744515998363272 3.310135564669021 21.100645252550667 1 0 0
62 0 1 0 8.468149571834514 4.481928843500721 20.9141347465813 0 0 0
7961 0 1 0 3.4472375724974422 3.291031160084395 21.180631697117263 1 0 0
7970 0 1 0 4.1643688348138035 2.0839794927593487 21.1354161164365 1 0 0
7958 0 1 0 2.040579884802135 0.8037464757679427 21.428033533864845 1 0 0
7969 0 1 0 3.3973400936164593 0.8336082327940156 21.272835245592177 1 0 0
7960 0 1 0 2.031036808747535 3.3756473173764383 21.230699301951596 1 0 0
7959 0 1 0 1.3214574099067373 2.0937828038164894 21.392822691892835 1 0 0
8022 0 1 0 4.1838948225634045 4.511418498294938 21.294979582757037 1 0 0
8011 0 1 0 1.3214418836109634 4.554234273114464 21.485545668147488 1 0 0
7980 0 1 0 6.336349456529239 3.281008291714615 21.205890884735414 1 0 0
7979 0 1 0 5.587699612624357 2.044747898964098 21.16282098291215 1 0 0
8031 0 1 0 5.609694425297784 4.523166867605261 21.273811975505563 1 0 0
8023 0 1 0 3.4602034701479214 5.751929370228886 21.320885818970744 1 0 0
8024 0 1 0 4.184667543841733 6.972990195103588 21.351134104313335 1 0 0
8025 0 1 0 3.4949955372054595 8.23549605007477 21.385795000784686 1 0 0
8012 0 1 0 2.009179779482737 5.823137925904497 21.50796756249666 1 0 0
8014 0 1 0 2.064577033337323 8.25868057300461 21.368483249517826 1 0 0
8013 0 1 0 1.3203352694065043 7.042579954490684 21.53501302000743 1 0 0
64 0 1 0 8.48687039953202 6.939912812656401 20.900680576787227 0 0 0
7985 0 1 0 7.737480890175499 8.186613966834972 21.13524057400839 1 0 0
8034 0 1 0 6.302105340191314 8.208331618029396 21.259318833929587 1 0 0
7983 0 1 0 7.789137350801135 5.702856226613833 20.864517015179437 1 0 0
8032 0 1 0 6.350838279595875 5.715873528750736 21.087695960907016 1 0 0
8033 0 1 0 5.598727526760998 6.950162817820722 21.184446740711547 1 0 0
8026 0 1 0 4.172204112536383 9.476183618012337 21.446597184986572 1 0 0
8027 0 1 0 3.5352306060750776 10.707650682198585 21.562652432034014 1 0 0
8028 0 1 0 4.238446755775782 11.911378316660382 21.435431273247783 1 0 0
8029 0 1 0 3.4894017035922458 13.147848024968704 21.47030447082724 1 0 0
8018 0 1 0 2.0828044212516685 13.182578761434272 21.451954224851114 1 0 0
8017 0 1 0 1.3276857048794015 11.984649512791664 21.456879560960125 1 0 0
8016 0 1 0 2.1028634366983217 10.757086329398252 21.421541815317422 1 0 0
8015 0 1 0 1.3926325700634494 9.513252370280016 21.347617077989632 1 0 0
8035 0 1 0 5.646612726592212 9.410495101315318 21.447646272841506 1 0 0
8036 0 1 0 6.379559353495488 10.648936259768007 21.509921076718104 1 0 0
66 0 1 0 8.455986292726937 9.45015682074512 21.225093994000012 0 0 0
7987 0 1 0 7.790012720544877 10.641618162600603 21.39471003248046 1 0 0
8037 0 1 0 5.64646861743262 11.918523044696713 21.561085270219735 1 0 0
68 0 1 0 8.513896507741201 11.924609902556018 21.331927003535444 0 0 0
8038 0 1 0 6.40020181832985 13.148264831124443 21.446381752141875 1 0 0
7989 0 1 0 7.8015993440412155 13.139783079769618 21.37700764802394 1 0 0
8030 0 1 0 4.209351654391406 14.3987949870376 21.553055378497596 1 0 0
8019 0 1 0 1.3666214857023373 14.404913437880221 21.577407227551877 1 0 0
8021 0 1 0 3.4943003259017824 15.631464817481067 21.487887724522565 1 0 0
8020 0 1 0 2.068815149906791 15.635566423213893 21.521004949636108 1 0 0
8082 0 1 0 4.299713079629902 16.8555219787927 21.592659058627465 1 0 0
8071 0 1 0 1.3566651373122909 16.894590929326665 21.704569999108877 1 0 0
8083 0 1 0 3.555008520630786 18.067297005739995 21.735359353410857 1 0 0
8072 0 1 0 2.1325487957774643 18.108659607139977 21.727877994413117 1 0 0
70 0 1 0 8.50346015199487 14.39402161578014 21.396452651725838 0 0 0
7981 0 1 0 7.80572966138752 15.640619942689526 21.45539340715568 1 0 0
122 0 1 0 8.492951655804932 16.87291915505684 21.458058549007454 0 0 0
8040 0 1 0 6.365735079855701 15.64018973989327 21.482899812731837 1 0 0
8039 0 1 0 5.613285326223407 14.387825723438056 21.508775252445268 1 0 0
8091 0 1 0 5.6657040721551395 16.872104748661794 21.537829547670757 1 0 0
8043 0 1 0 7.767670636391025 18.087944999654074 21.53393368911627 1 0 0
8092 0 1 0 6.363656682267869 18.10492412268768 21.678122423981154 1 0 0
8084 0 1 0 4.278767648712002 19.326381769815516 21.76519111970973 1 0 0
8086 0 1 0 4.2449464394991505 21.89897734575231 21.745265217950084 1 0 0
8085 0 1 0 3.5667920873426255 20.621385437830256 21.81442223431829 1 0 0
8074 0 1 0 2.153635526013559 20.61223164884577 21.895694682796325 1 0 0
8073 0 1 0 1.4281775045671414 19.402149395566944 21.84551442031396 1 0 0
8075 0 1 0 1.4653956397660675 21.82708816162691 21.855848602197444 1 0 0
8076 0 1 0 2.1542386690017357 23.077625993045913 21.710760305413906 1 0 0
8087 0 1 0 3.5164186771270067 23.100077803598378 21.704938142220374 1 0 0
8045 0 1 0 7.735360297531893 20.617143142020595 21.727543017865887 1 0 0
124 0 1 0 8.446334401888661 19.35710171669997 21.552525889619993 0 0 0
126 0 1 0 8.501783331865758 21.80652540932013 21.86267221082221 0 0 0
8093 0 1 0 5.697103450209446 19.32879501259773 21.830833424579403 1 0 0
8095 0 1 0 5.647136940090554 21.862057138415093 21.84581275571609 1 0 0
8094 0 1 0 6.323602946264502 20.6256638195353 21.862000397171222 1 0 0
8047 0 1 0 7.823684013592516 23.037128512558 21.97221437707038 1 0 0
8096 0 1 0 6.37019359239793 23.040874037026065 21.911413475436056 1 0 0
8079 0 1 0 1.370415275000996 26.840281595318086 21.629273490403364 1 0 0
8089 0 1 0 3.5205356087337853 25.54910780778027 21.80935371084377 1 0 0
8078 0 1 0 2.0737041082229952 25.564353307152604 21.644034469522495 1 0 0
8088 0 1 0 4.260648655873052 24.346870334606113 21.71598598690729 1 0 0
8090 0 1 0 4.280935953561667 26.78338751796929 21.862299207385217 1 0 0
8077 0 1 0 1.4083123055570397 24.30166419038061 21.635533184569795 1 0 0
8098 0 1 0 6.35294122007548 25.54034859645453 22.011212400350175 1 0 0
8049 0 1 0 7.7908840042097935 25.562360371324715 22.032614926946074 1 0 0
128 0 1 0 8.527074279220376 24.291508547704947 22.040201799859915 0 0 0
130 0 1 0 8.525539611712318 26.764002293364648 21.986236163478978 0 0 0
8097 0 1 0 5.7055082931828975 24.30332418348659 21.88968575189106 1 0 0
8099 0 1 0 5.712594246087642 26.801704248998824 21.9830782865555 1 0 0
8080 0 1 0 2.1159973865304713 28.01816613959442 21.817546692197 1 0 0
8131 0 1 0 1.3603610089978275 29.237457136122885 22.01623551435113 1 0 0
8143 0 1 0 3.5305828741009244 30.468836947318632 21.960270879626265 1 0 0
8142 0 1 0 4.232501830238452 29.209328704579523 21.97507102010491 1 0 0
8132 0 1 0 2.099011895205213 30.461818823755415 22.004188137589555 1 0 0
8081 0 1 0 3.5079939512408918 27.981695262188577 21.908175605163283 1 0 0
8144 0 1 0 4.250695175426326 31.71368725116435 21.969732625179212 1 0 0
8133 0 1 0 1.3577199541128806 31.714974555153827 22.053716340472942 1 0 0
182 0 1 0 8.515873393307192 29.236273341776222 21.863916536781772 0 0 0
8103 0 1 0 7.825006503460103 30.439145119045808 21.7112200421337 1 0 0
8041 0 1 0 7.8267036382752835 28.00526483714434 21.841236482367677 1 0 0
184 0 1 0 8.52980768701781 31.69981526562163 21.69572673516724 0 0 0
8152 0 1 0 6.409333911086256 30.41762498762367 21.772502319762875 1 0 0
8153 0 1 0 5.697158312170847 31.68665502044413 21.9604917367259 1 0 0
8100 0 1 0 6.386796535595613 28.021117463751008 21.912881174062942 1 0 0
8151 0 1 0 5.6381622316949445 29.24082296042977 21.83442649222216 1 0 0
8134 0 1 0 2.1184267895399778 32.91494093226777 22.03445319486255 1 0 0
8135 0 1 0 1.3559192892988197 34.15124644952395 22.080043633322326 1 0 0
8146 0 1 0 4.234620136559459 34.168566409760174 21.93497015452627 1 0 0
8147 0 1 0 3.558823917095043 35.38826043606462 21.873385365189257 1 0 0
8136 0 1 0 2.102026146319198 35.40886751406439 22.02684374326646 1 0 0
8145 0 1 0 3.5427131634162756 32.90433705869864 22.01323061019078 1 0 0
8148 0 1 0 4.212858574576288 36.60655555276888 21.815549977356323 1 0 0
8137 0 1 0 1.3702686882223372 36.58290820049591 21.896839168348553 1 0 0
8107 0 1 0 7.861556488081711 35.39227213278517 21.78176089340727 1 0 0
186 0 1 0 8.538536210473728 34.20831779610999 21.731090636416944 0 0 0
8154 0 1 0 6.426914813615224 32.92057322398353 21.889043798075452 1 0 0
8156 0 1 0 6.408374879838674 35.39344865276553 21.823471685657715 1 0 0
188 0 1 0 8.541923745831175 36.63938492772424 21.70814503962245 0 0 0
8155 0 1 0 5.709451062677858 34.153127813712615 21.86612136047161 1 0 0
8105 0 1 0 7.851747923596526 32.942756147978876 21.794972816059396 1 0 0
8157 0 1 0 5.6840163862608275 36.5814985123064 21.73267691085989 1 0 0
8066 0 1 0 0.004369159278212464 21.839456508979 21.790384630188846 1 0 0
8141 0 1 0 3.50206483270416 40.26213867631033 21.65668451316297 1 0 0
8140 0 1 0 2.0971752772020196 40.27773821264014 21.722128424118427 1 0 0
8150 0 1 0 4.285443180692785 39.06420016152456 21.58205032805442 1 0 0
8138 0 1 0 2.0953371673087706 37.80868845534993 21.791632086885954 1 0 0
8149 0 1 0 3.502376558432191 37.88139618149596 21.704002746628408 1 0 0
8139 0 1 0 1.3592139817617401 39.05359932781594 21.781867081290894 1 0 0
8202 0 1 0 4.206992494375034 41.59492525626581 21.62804718300458 1 0 0
8191 0 1 0 1.357756319907169 41.528733231408786 21.559726290738887 1 0 0
8159 0 1 0 5.726177677195775 39.05161885193248 21.599964564306127 1 0 0
8101 0 1 0 7.815843301730767 40.3180339645834 21.74684713272891 1 0 0
8160 0 1 0 6.431046907008028 40.31969815019969 21.701047654187864 1 0 0
8158 0 1 0 6.429289221470475 37.840284033304364 21.59338465590496 1 0 0
190 0 1 0 8.508533919855097 39.11776222228682 21.71239229526115 0 0 0
8109 0 1 0 7.823812033001798 37.83973828767815 21.613453781780947 1 0 0
8211 0 1 0 5.643114645823258 41.56164976465811 21.75447716447396 1 0 0
242 0 1 0 8.52309671836941 41.5523488550203 21.892340831683377 0 0 0
8203 0 1 0 3.491550949281728 42.82141079996983 21.69342321105154 1 0 0
8204 0 1 0 4.212257170056643 44.06010513881194 21.714394198479436 1 0 0
8192 0 1 0 2.02607875465967 42.728590122560526 21.64986006371427 1 0 0
8193 0 1 0 1.3483459950050318 43.973461155363964 21.65683657501787 1 0 0
8205 0 1 0 3.5072141106737416 45.22936849664478 21.712664022133193 1 0 0
8194 0 1 0 2.0561373499541324 45.221994879675115 21.741630062185884 1 0 0
8213 0 1 0 5.607047044052946 44.022792361272785 21.87304990462269 1 0 0
8214 0 1 0 6.389016693233844 45.21768765012998 21.94534599620218 1 0 0
244 0 1 0 8.490737055154762 43.9996953151224 21.966899915892014 0 0 0
8165 0 1 0 7.795958398992985 45.23548328074578 22.012357423438075 1 0 0
8212 0 1 0 6.344206798015948 42.80929159517862 21.914348554140087 1 0 0
8163 0 1 0 7.77558646877455 42.74946169958979 21.913147112933427 1 0 0
8206 0 1 0 4.284056332452044 46.52174239594213 21.79836579390241 1 0 0
8207 0 1 0 3.5744415099780253 47.76159760985268 21.8523245264217 1 0 0
8208 0 1 0 4.323530412480104 49.01140412372753 21.96713407999409 1 0 0
8196 0 1 0 2.177291011369403 47.70243757804233 21.855787140049046 1 0 0
8197 0 1 0 1.48196053984257 48.93443348438618 21.80340676250815 1 0 0
8195 0 1 0 1.4435716349190477 46.4241286845672 21.794058695759823 1 0 0
8209 0 1 0 3.550689639030522 50.21031904065932 21.93555660044399 1 0 0
8198 0 1 0 2.130141415292937 50.19273984415868 21.912528940687988 1 0 0
8215 0 1 0 5.636903496848253 46.43041837195276 21.94423763021783 1 0 0
8217 0 1 0 5.698058916172281 48.96346931397687 22.14429007723028 1 0 0
8167 0 1 0 7.785158694402708 47.689719833064096 21.93988679552528 1 0 0
8216 0 1 0 6.368766936510025 47.68997524810234 22.017664062379687 1 0 0
8218 0 1 0 6.384616484989419 50.251568193751325 22.17165652984232 1 0 0
8169 0 1 0 7.792364893760046 50.2577358907879 22.011415215926363 1 0 0
248 0 1 0 8.467149820545842 48.97395116823885 21.93956924892811 0 0 0
246 0 1 0 8.492702364275255 46.456805864833406 22.012054379407132 0 0 0
8201 0 1 0 3.5499576625719915 52.67806112654244 22.177439127702716 1 0 0
8210 0 1 0 4.2546142472851365 51.46804331292308 22.118535831691414 1 0 0
8200 0 1 0 2.1354372532875443 52.655584436247985 22.00173737344412 1 0 0
8199 0 1 0 1.4051879381358272 51.40748325006232 21.9688055899628 1 0 0
8262 0 1 0 4.265963117309991 53.90896399529839 22.20287805463467 1 0 0
8251 0 1 0 1.429004700540307 53.9743925481065 21.877029361270935 1 0 0
8263 0 1 0 3.579104721556792 55.1931031306131 22.100889800182397 1 0 0
8252 0 1 0 2.10867847507507 55.216360489976566 22.000287396547666 1 0 0
8223 0 1 0 7.782001937394215 55.21951131310298 22.26875757698246 1 0 0
8219 0 1 0 5.678924742341824 51.45492546377588 22.076131071435523 1 0 0
302 0 1 0 8.515454783398702 53.918518662404466 22.193894532628942 0 0 0
8220 0 1 0 6.385268336843905 52.71717305636817 22.139337777085668 1 0 0
8161 0 1 0 7.783652156492647 52.747008953276904 22.166113255868705 1 0 0
8271 0 1 0 5.647198312762923 53.991610476611804 22.29595337866067 1 0 0
8272 0 1 0 6.33909606817235 55.264301563115424 22.29796054640508 1 0 0
250 0 1 0 8.508459739657416 51.477807226334086 21.974570201829827 0 0 0
8188 0 1 0 0.044382625325845 48.923952247268765 21.879525408774555 1 0 0
8186 0 1 0 0.021478890061700895 46.437893795244136 21.836652857717368 1 0 0
8266 0 1 0 4.240121188013686 58.91380315236275 22.04749471728945 1 0 0
8264 0 1 0 4.203961469354483 56.47181315952555 22.073060642733964 1 0 0
8265 0 1 0 3.4895014892078033 57.6617722787675 22.098612099216517 1 0 0
8254 0 1 0 2.0633624212683555 57.67098274067476 22.03051945287755 1 0 0
8253 0 1 0 1.3986599823238184 56.424682595458904 21.927680686442887 1 0 0
8255 0 1 0 1.3693024006539165 58.906335550510846 22.00190388013983 1 0 0
8267 0 1 0 3.513968947878141 60.14354497838799 22.051468110834943 1 0 0
8256 0 1 0 2.046523062080308 60.146748137859156 21.947157188665923 1 0 0
8274 0 1 0 6.358700014790705 57.75652015938249 22.192338368022096 1 0 0
304 0 1 0 8.490768277845694 56.4203511312806 22.161585066859264 0 0 0
8225 0 1 0 7.8172190383726905 57.68201029098273 22.165731125702894 1 0 0
306 0 1 0 8.512642706447888 58.91567617387142 21.931764852848573 0 0 0
8276 0 1 0 6.3609751159068475 60.15972005708137 21.917499922133914 1 0 0
8227 0 1 0 7.773027908796977 60.13404904309358 21.849715872792018 1 0 0
8273 0 1 0 5.609330658694678 56.49002450478496 22.23188627737993 1 0 0
8275 0 1 0 5.677483634237895 58.94105383992845 22.03899554096429 1 0 0
8258 0 1 0 2.075816641536842 62.5844982043695 21.63113553894476 1 0 0
8268 0 1 0 4.182491662403044 61.345775393190834 21.851135373561505 1 0 0
8257 0 1 0 1.3517459866782813 61.37268614207332 21.764378821633635 1 0 0
8269 0 1 0 3.491888859851227 62.56916772093609 21.64122952382576 1 0 0
8259 0 1 0 1.3341736581876968 63.80696380610439 21.65551064254536 1 0 0
8270 0 1 0 4.225552929552592 63.805711722597174 21.582065423544776 1 0 0
308 0 1 0 8.507623932871455 61.37294231463548 21.79383616186937 0 0 0
8229 0 1 0 7.827862425948489 62.58905498727984 21.599506418600058 1 0 0
310 0 1 0 8.509619278347362 63.82654625683363 21.492746227442844 0 0 0
8277 0 1 0 5.6567012432276105 61.43411125152634 21.83243995556114 1 0 0
8279 0 1 0 5.680777713902407 63.84738171577097 21.475464865449453 1 0 0
8278 0 1 0 6.388638721881709 62.60940997224688 21.6034726570304 1 0 0
8312 0 1 0 2.111464185198336 67.59316297312576 21.652013592103785 1 0 0
8261 0 1 0 3.510599541380539 65.05717115798545 21.61278895243173 1 0 0
8322 0 1 0 4.23583594852506 66.32511510433204 21.58600709566551 1 0 0
8323 0 1 0 3.512359884971422 67.58373745536213 21.611234299733894 1 0 0
8260 0 1 0 2.1146082808294473 65.04812271054784 21.639270902937774 1 0 0
8311 0 1 0 1.4068208895025207 66.35874954972773 21.619337577395193 1 0 0
8313 0 1 0 1.3817690297119618 68.78343802927847 21.7613862416317 1 0 0
8324 0 1 0 4.177421008531165 68.77807329642033 21.553629870454827 1 0 0
8331 0 1 0 5.650707136426473 66.34587903628235 21.52289947519217 1 0 0
8280 0 1 0 6.33190592676319 65.0917308422605 21.48945428884446 1 0 0
8332 0 1 0 6.413937894780209 67.57445522744771 21.517607958471956 1 0 0
8221 0 1 0 7.769450532274405 65.0945077851947 21.36563543950631 1 0 0
362 0 1 0 8.483416099831269 66.26875056112354 21.29693261343128 0 0 0
8283 0 1 0 7.782024845154358 67.58509715608831 21.378239911042726 1 0 0
364 0 1 0 8.489848668526811 68.84313094077112 21.364250048990577 0 0 0
8333 0 1 0 5.661939402612613 68.7758213669288 21.58019511611617 1 0 0
8328 0 1 0 4.249970659338193 73.71993010675848 21.416050877046455 1 0 0
8314 0 1 0 2.048578818848876 70.01692990539937 21.638545596257714 1 0 0
8316 0 1 0 2.087556547039945 72.50639859320363 21.523414101866557 1 0 0
8325 0 1 0 3.4673585966108336 70.04001274815262 21.605695892785263 1 0 0
8315 0 1 0 1.361278175363352 71.27892298850945 21.612413196578387 1 0 0
8327 0 1 0 3.4822000359913323 72.49253587086386 21.549662625110134 1 0 0
8326 0 1 0 4.206254380954266 71.29015746741429 21.53043833608952 1 0 0
8317 0 1 0 1.3575137544801348 73.67150886572543 21.60557030860454 1 0 0
8335 0 1 0 5.639149010375338 71.28610567615097 21.375897355729766 1 0 0
368 0 1 0 8.505050021694373 73.72251057546377 21.13185670512168 0 0 0
8285 0 1 0 7.731816498636413 70.0487619306582 21.41194050394598 1 0 0
8337 0 1 0 5.663804104489637 73.76475920038504 21.253336474751322 1 0 0
8334 0 1 0 6.326286748603979 70.06641283656695 21.531783356670942 1 0 0
8287 0 1 0 7.775581527973147 72.51230056201403 21.13242180608522 1 0 0
366 0 1 0 8.47542950656921 71.26894947225956 21.321193613281856 0 0 0
8336 0 1 0 6.325933902296214 72.51824939560333 21.245815915339918 1 0 0
8329 0 1 0 3.5157906190815913 74.9275306028872 21.413650767676803 1 0 0
8318 0 1 0 2.0987860598161987 74.92494204280653 21.572570663915563 1 0 0
8321 0 1 0 3.5434910891223783 77.42427903477208 21.410008564411804 1 0 0
8320 0 1 0 2.128394673946386 77.43068092883867 21.386770586347723 1 0 0
8330 0 1 0 4.22735854389931 76.19696858713176 21.429983862082292 1 0 0
8319 0 1 0 1.4230643689344225 76.18639192875209 21.570200976100573 1 0 0
8371 0 1 0 1.4464911351879564 78.68665006843979 21.287407436649364 1 0 0
8382 0 1 0 4.294134173963829 78.61519585339472 21.35027431292794 1 0 0
8339 0 1 0 5.6710946884167255 76.21917098165511 21.30641492531158 1 0 0
8340 0 1 0 6.416423252407155 77.46076849380178 21.400294573130626 1 0 0
8281 0 1 0 7.825616696811673 77.49647449789211 21.251480233448344 1 0 0
8338 0 1 0 6.38013825884473 75.00089962222769 21.194696442686023 1 0 0
8289 0 1 0 7.827404334672372 74.98761805322398 21.137743937112184 1 0 0
370 0 1 0 8.544511562653776 76.24802597083463 21.11854580406828 0 0 0
8391 0 1 0 5.682555566796431 78.68210284732946 21.453744589979 1 0 0
422 0 1 0 8.497344141148352 78.68576046312698 21.33741569272202 0 0 0
8372 0 1 0 2.1129680695878457 79.92266300329902 21.23694246270617 1 0 0
8383 0 1 0 3.5219810123432604 79.92572417186457 21.338823817705123 1 0 0
8384 0 1 0 4.226227892118724 81.14571359038877 21.38199258782567 1 0 0
8373 0 1 0 1.4097944764781642 81.19282596529814 21.330798759392827 1 0 0
8374 0 1 0 2.106239275495597 82.38417531044664 21.394524091419026 1 0 0
8385 0 1 0 3.544988741253061 82.37332795014119 21.331010413758317 1 0 0
8393 0 1 0 5.6613408165540635 81.21481839277969 21.307435297853434 1 0 0
8392 0 1 0 6.370508521929246 79.89995053495579 21.36263992445945 1 0 0
424 0 1 0 8.528968807392802 81.06217410526959 21.262073527772323 0 0 0
8343 0 1 0 7.780919326953964 79.89888244626539 21.371767001371097 1 0 0
8394 0 1 0 6.379182552044437 82.41550194462855 21.18095274775301 1 0 0
8345 0 1 0 7.814010496083707 82.37498426442959 21.14438352861373 1 0 0
8386 0 1 0 4.2601679767983445 83.59243474712945 21.360427407450214 1 0 0
8387 0 1 0 3.513220919357139 84.84828951891689 21.329085015094094 1 0 0
8388 0 1 0 4.2158390454118555 86.09208276642501 21.318138249809937 1 0 0
8375 0 1 0 1.4399796220689196 83.59939008385213 21.495686743310596 1 0 0
8376 0 1 0 2.1192090753250894 84.85489978836462 21.40717216630971 1 0 0
8377 0 1 0 1.384272939629293 86.11020244368117 21.564596800017732 1 0 0
8389 0 1 0 3.523849909498261 87.33539954171233 21.494072228712604 1 0 0
8378 0 1 0 2.1042346600243755 87.34729373621629 21.607240177804805 1 0 0
8397 0 1 0 5.616044834445139 86.0649388523229 21.153587283150824 1 0 0
8395 0 1 0 5.670109301154044 83.62915483716756 21.210091050870943 1 0 0
8396 0 1 0 6.379439282640009 84.86411037653198 21.187267108545168 1 0 0
428 0 1 0 8.464079897196637 86.08631946637831 20.919965525402738 0 0 0
8347 0 1 0 7.789416932860624 84.866274661667 21.14959307144663 1 0 0
426 0 1 0 8.516831943573969 83.58746457243865 21.130414384892887 0 0 0
8398 0 1 0 6.343414514967256 87.37879205552233 21.074870236644017 1 0 0
8349 0 1 0 7.744404919717267 87.32178110179763 20.99727982611667 1 0 0
8381 0 1 0 3.53251085687844 89.79448454500867 21.61642933449095 1 0 0
8390 0 1 0 4.232339636014254 88.62253847221838 21.48365675556931 1 0 0
8380 0 1 0 2.1009607842535636 89.83536525587596 21.680784872215504 1 0 0
8431 0 1 0 1.4018275601731778 91.00253899114497 21.565443190488754 1 0 0
8379 0 1 0 1.3531525963479971 88.59173155374727 21.645886214314853 1 0 0
8442 0 1 0 4.27088177582642 91.07312874037767 21.499182614223802 1 0 0
8443 0 1 0 3.5654232359470694 92.25977676254772 21.39375958791292 1 0 0
8432 0 1 0 2.127456432497753 92.27487108917147 21.55280313261506 1 0 0
8451 0 1 0 5.686202048628514 91.04995984854037 21.215475447115445 1 0 0
8452 0 1 0 6.36353601692547 92.27178965284479 21.080139626669077 1 0 0
430 0 1 0 8.470628848454357 88.52586243150358 21.03770735104807 0 0 0
8403 0 1 0 7.792470264829716 92.2428547777401 21.1354769399879 1 0 0
8341 0 1 0 7.765744487527739 89.73197098899512 21.134803414237087 1 0 0
8399 0 1 0 5.653806348982303 88.60246870480248 21.35027720767105 1 0 0
8400 0 1 0 6.346808382991483 89.79642448420918 21.19189515177956 1 0 0
482 0 1 0 8.485846403556186 90.97759358101248 21.226774442147686 0 0 0
8310 0 1 0 0.0022633658360007303 76.16760510052849 21.461891915440408 1 0 0
8362 0 1 0 0.007567360227227482 78.6903855057995 21.298322974480357 1 0 0
8422 0 1 0 0.00574346127126546 90.97874831221195 21.567210074894682 1 0 0
8366 0 1 0 0.016354891846049213 83.61446006524255 21.516225538333934 1 0 0
8445 0 1 0 3.526179935863838 94.75399147531576 21.15233140438047 1 0 0
8434 0 1 0 2.1156773650265728 94.77718103082367 21.43228381359264 1 0 0
8446 0 1 0 4.259951674889179 96.00970154577061 21.153265653850816 1 0 0
8435 0 1 0 1.3937996012306995 95.97634992108847 21.58747773165695 1 0 0
8447 0 1 0 3.5009758602355805 97.2428546079837 21.369360777175327 1 0 0
8444 0 1 0 4.2519371541759465 93.52040132223777 21.170115307781483 1 0 0
8433 0 1 0 1.3748347591021703 93.55013638242293 21.581029465695327 1 0 0
8436 0 1 0 2.096766348284936 97.15837050095597 21.47885097379796 1 0 0
8455 0 1 0 5.6884325577325905 96.01934558801034 20.962225402839 1 0 0
8454 0 1 0 6.385673440499781 94.77474837342886 20.89574003494335 1 0 0
8453 0 1 0 5.655454115729985 93.51983069318035 20.911493650895537 1 0 0
484 0 1 0 8.520809299144252 93.50362928742817 21.1035234705011 0 0 0
8405 0 1 0 7.79437601920238 94.7576760064212 20.904669173059457 1 0 0
486 0 1 0 8.464729349818423 95.99784822577169 21.07655452195619 0 0 0
8456 0 1 0 6.397036871464183 97.2627760383353 21.13148747974016 1 0 0
8407 0 1 0 7.773255701246894 97.2626878875478 21.105890705230735 1 0 0
8448 0 1 0 4.204567472476015 98.47035074984123 21.352108718079013 1 0 0
8449 0 1 0 3.544336194679828 99.6837277963274 21.512541219385813 1 0 0
8438 0 1 0 2.125118057785615 99.70293943637876 21.662173915676057 1 0 0
8437 0 1 0 1.3870817724660043 98.46454316923928 21.574905455748805 1 0 0
8450 0 1 0 4.2292259304384645 100.97929512151839 21.633356551008788 1 0 0
8439 0 1 0 1.4195217724179297 100.94842341605967 21.826493866541586 1 0 0
8457 0 1 0 5.648062692016145 98.46200169425323 21.290433081869114 1 0 0
8459 0 1 0 5.647708520687664 100.95371375137503 21.521448000178136 1 0 0
8458 0 1 0 6.34417011718842 99.68045210766296 21.437967456463653 1 0 0
488 0 1 0 8.48807870951816 98.5214606301699 21.22631367559914 0 0 0
8409 0 1 0 7.75978307799556 99.70354528824713 21.404754765826073 1 0 0
490 0 1 0 8.474464288745937 100.91350671223941 21.34656649388927 0 0 0
8492 0 1 0 2.1337946027627543 104.5823589595782 21.797568504765156 1 0 0
8493 0 1 0 1.3700000448004446 105.85616302877885 21.900467825376143 1 0 0
8441 0 1 0 3.5511103114472404 102.20100455225952 21.722808342934023 1 0 0
8502 0 1 0 4.313296892852495 103.4283011554586 21.655514810531017 1 0 0
8503 0 1 0 3.6036258198832947 104.64208775138005 21.820575819866484 1 0 0
8440 0 1 0 2.137934681636259 102.1539033597134 21.825518752125504 1 0 0
8491 0 1 0 1.3983242390383264 103.38998803416453 21.911774934080874 1 0 0
8504 0 1 0 4.272412311778554 105.88405843072873 21.782782122488342 1 0 0
8513 0 1 0 5.677763722736453 105.91254138034643 21.668357925974906 1 0 0
544 0 1 0 8.499425456398082 105.83719932296643 21.381160514840133 0 0 0
8511 0 1 0 5.681418235242634 103.4096477421548 21.643661439891652 1 0 0
8460 0 1 0 6.401667796025984 102.19287665563702 21.458723638752232 1 0 0
8512 0 1 0 6.4075705629664235 104.66917149258872 21.63363583344629 1 0 0
542 0 1 0 8.521478156370508 103.40961750005748 21.458460656026862 0 0 0
8463 0 1 0 7.817952027764094 104.6401029569099 21.486636463123457 1 0 0
8401 0 1 0 7.837032796940013 102.20030141094848 21.423727444059487 1 0 0
8508 0 1 0 4.279150877679429 110.80488195993117 21.442673710886513 1 0 0
8496 0 1 0 2.1464556350749437 109.58619835042627 21.870077692029366 1 0 0
8507 0 1 0 3.5720258415174464 109.56582846359356 21.748676069551376 1 0 0
8497 0 1 0 1.3832485574405051 110.81128431955163 21.7485510710385 1 0 0
8506 0 1 0 4.320433328092111 108.33599214281301 21.715679200344642 1 0 0
8505 0 1 0 3.524459238682817 107.09096003628215 21.752412333356066 1 0 0
8494 0 1 0 2.115007006682234 107.05662891962636 21.914805438639117 1 0 0
8495 0 1 0 1.4142457102255588 108.3431810567673 21.952435858208926 1 0 0
8467 0 1 0 7.870702476050324 109.56532210214202 21.153730051888264 1 0 0
8516 0 1 0 6.446529540287446 109.61052684322011 21.268521394706955 1 0 0
548 0 1 0 8.53428643285064 110.80299546833541 20.859184728031337 0 0 0
546 0 1 0 8.54483881980783 108.32987462507941 21.180393209977904 0 0 0
8517 0 1 0 5.675670514443945 110.8273856175656 21.265121266991702 1 0 0
8465 0 1 0 7.814640382707188 107.12264846595387 21.409892285988427 1 0 0
8514 0 1 0 6.398058622008043 107.14759209891234 21.522769069602543 1 0 0
8515 0 1 0 5.746171043663741 108.3878065035993 21.520531402759676 1 0 0
8430 0 1 0 0.009516991250649198 100.93358114815281 21.90442056984636 1 0 0
8568 0 1 0 4.110851415625744 123.0915428368729 20.44067273302351 1 0 0
8569 0 1 0 3.3728587819290055 124.29128949314689 20.44599332413361 1 0 0
8558 0 1 0 1.9408485876139032 124.33029407887474 20.438013105904258 1 0 0
8622 0 1 0 4.164407308512522 127.9662678838725 20.85798148719788 1 0 0
8623 0 1 0 3.3994196620089445 129.20576040730066 20.97723946436826 1 0 0
8561 0 1 0 3.3972280558520755 126.75680756309615 20.70339610904325 1 0 0
8612 0 1 0 1.9721765419947908 129.2611797005346 20.890011254481042 1 0 0
8559 0 1 0 1.2445206059910128 125.56928189243301 20.55960565437822 1 0 0
8560 0 1 0 1.990093665857913 126.76150633465623 20.69158683534927 1 0 0
8570 0 1 0 4.095011849403861 125.51755854303006 20.505087197004222 1 0 0
8583 0 1 0 7.7384692352881395 129.22349771770365 20.916930844592112 1 0 0
8521 0 1 0 7.682107431328814 126.74946480132937 20.665249956703132 1 0 0
8631 0 1 0 5.5771257271006665 127.99210935795836 20.87286509219281 1 0 0
8580 0 1 0 6.292123132581718 126.78167320547009 20.72289430424833 1 0 0
662 0 1 0 8.465054282450755 127.98010183895667 20.73941544413183 0 0 0
8632 0 1 0 6.276042308820219 129.24246601508793 20.99965214965421 1 0 0
8579 0 1 0 5.529027167362183 125.5123165280467 20.607500943746167 1 0 0
610 0 1 0 8.427247348129582 125.56805014413145 20.538209435898217 0 0 0
8501 0 1 0 3.516731587908919 114.49840410672036 20.939400012363294 1 0 0
8510 0 1 0 4.193706748416325 113.2670524858933 21.070986088138813 1 0 0
8509 0 1 0 3.4869533688552523 112.03491127330295 21.31146493907619 1 0 0
8562 0 1 0 4.162177837191638 115.70950654384119 20.67635825927457 1 0 0
8498 0 1 0 2.0670666152271475 112.02148595949951 21.466207643312814 1 0 0
8500 0 1 0 2.060650704231042 114.46785522856729 21.07336938230483 1 0 0
8499 0 1 0 1.3678333202402184 113.24065665630528 21.366253046349097 1 0 0
8551 0 1 0 1.3155863138065718 115.64331451963892 20.865846601288965 1 0 0
8519 0 1 0 5.62094393470886 113.27237252921142 20.781032208994574 1 0 0
8518 0 1 0 6.334339472607578 112.0300287829247 20.92053764433487 1 0 0
8469 0 1 0 7.763132985872282 112.02886780112235 20.814424957555183 1 0 0
8520 0 1 0 6.2970627620498885 114.4782337681762 20.581197649658197 1 0 0
550 0 1 0 8.432743707843759 113.24177984663031 20.506708434062308 0 0 0
8461 0 1 0 7.75545245038122 114.47869054551629 20.450420522366343 1 0 0
8571 0 1 0 5.602903223824431 115.71529776118604 20.562639846230798 1 0 0
602 0 1 0 8.393611308816778 115.64561764366358 20.162227845743363 0 0 0
8563 0 1 0 3.42733142024566 116.951143652399 20.600861926943644 1 0 0
8552 0 1 0 2.0429132017608294 116.92050833689278 20.667773198388645 1 0 0
8564 0 1 0 4.097173728770254 118.17538931648171 20.426366568294156 1 0 0
8565 0 1 0 3.3841908750051206 119.4026241035038 20.339068548625338 1 0 0
8553 0 1 0 1.305045055336996 118.1359697072249 20.59230695227474 1 0 0
8554 0 1 0 1.9882108814920667 119.39076041951076 20.429052438496882 1 0 0
8572 0 1 0 6.290586138895578 116.90825344312657 20.375263985870944 1 0 0
8523 0 1 0 7.671065999088324 116.88034377643983 20.248858035718552 1 0 0
604 0 1 0 8.426306275689699 118.11269132581457 20.250857212321808 0 0 0
8573 0 1 0 5.554745689624506 118.14292893580424 20.333162331360906 1 0 0