LAMMPS data file via write_data, version 4 Feb 2025, timestep = 80000, units = metal

22680 atoms
3 atom types

0 154.00799999999998 xlo xhi
0 148.2 ylo yhi
0 151.07609208607428 zlo zhi

Masses

1 12.01099999691024
2 1.007999999740698
3 15.99899999588435

Atoms # full

7975 0 1 0 1.2516079489127543 2.2199692551786074 16.06282407433579 1 0 0
7974 0 1 0 1.978697300523541 1.0020046282435562 16.103185542569314 1 0 0
7927 0 1 0 3.4076765002567653 3.4446867387466766 15.68706873119275 1 0 0
7976 0 1 0 1.99422265765765 3.4522130303922873 15.899287498840085 1 0 0
7925 0 1 0 3.381465664266866 0.9898890844643286 16.096917635069698 1 0 0
6 0 1 0 4.157573026605693 2.2344976426812058 15.828762484823223 0 0 0
14 0 1 0 6.279802395759694 0.928418236500533 15.863609971836604 0 0 0
25 0 1 0 7.69292028505818 0.9944689311589227 15.720730118131476 0 0 0
26 0 1 0 8.388136233873682 2.2269769535837725 15.637438697754101 0 0 0
27 0 1 0 7.6924746748873885 3.442183302774106 15.65092525300243 0 0 0
16 0 1 0 6.262619010626724 3.4294599749272447 15.656764421273085 0 0 0
15 0 1 0 5.565033029035959 2.1908523242964875 15.785573128151418 0 0 0
7977 0 1 0 1.254678939996782 4.6615220303221525 15.796701222838713 1 0 0
7980 0 1 0 2.02229365272161 8.34496171679007 15.799008678397392 1 0 0
7921 0 1 0 3.415729254370247 8.412864492255467 15.669854655252225 1 0 0
7979 0 1 0 1.2687089533476748 7.14753369541775 15.85351616065194 1 0 0
7978 0 1 0 1.9886119009821028 5.894143700440952 15.75087436040872 1 0 0
7929 0 1 0 3.4270216182527133 5.942401336018572 15.656733119306764 1 0 0
10 0 1 0 4.13264239783827 7.159770448556916 15.599399175720068 0 0 0
8 0 1 0 4.099663999031571 4.704863896431239 15.587690326497452 0 0 0
30 0 1 0 8.381498428742379 7.166891078490469 15.446108028482135 0 0 0
28 0 1 0 8.413558549203465 4.6843903269618075 15.60751789488109 0 0 0
21 0 1 0 7.66303605990388 8.40224303912643 15.491889851437112 0 0 0
29 0 1 0 7.691618056750679 5.917106806761388 15.512673457693012 0 0 0
20 0 1 0 6.224016965829905 8.376595076814109 15.508785020624607 0 0 0
19 0 1 0 5.5409514175103025 7.14572691162748 15.5335754697207 0 0 0
17 0 1 0 5.525628184761077 4.681524130633859 15.52304678549942 0 0 0
18 0 1 0 6.243211794349798 5.91466394874128 15.50977231732803 0 0 0
8033 0 1 0 1.2784086912536585 12.103316862130852 15.903313221545266 1 0 0
8034 0 1 0 1.983544226950038 13.330182288017896 15.820225151341342 1 0 0
7985 0 1 0 3.457189323588373 13.365734427701025 15.81715971307892 1 0 0
64 0 1 0 4.111313548696407 12.104269923424392 15.806633714993303 0 0 0
7983 0 1 0 3.392842696596806 10.858747867950811 15.833993895335793 1 0 0
62 0 1 0 4.12141889579458 9.615936787527305 15.699179945978978 0 0 0
8032 0 1 0 1.9365158445265713 10.835937738379588 15.87993246852881 1 0 0
8031 0 1 0 1.2429338905622107 9.637306259931139 15.905350863583584 1 0 0
74 0 1 0 6.27775075621304 13.355302861453627 15.845787794469068 0 0 0
85 0 1 0 7.717156095403742 13.329590995248507 15.843253520280806 0 0 0
72 0 1 0 6.2927878356755045 10.862753451879064 15.604500951103947 0 0 0
71 0 1 0 5.539936841157454 9.60226595844858 15.654823332583808 0 0 0
73 0 1 0 5.583905133841486 12.092597723231828 15.724651897211185 0 0 0
84 0 1 0 8.388374778267043 12.116602140116836 15.674043730157688 0 0 0
82 0 1 0 8.402903649710877 9.618355575753823 15.578125693608415 0 0 0
83 0 1 0 7.731725679652426 10.880520184509926 15.64964318882537 0 0 0
68 0 1 0 4.097403152751447 17.036090049400265 16.071892593101648 0 0 0
7989 0 1 0 3.4528438769056797 18.294318615402364 16.22551565215652 1 0 0
7987 0 1 0 3.3941711388110622 15.848344193993944 15.964328878887947 1 0 0
8035 0 1 0 1.2826920978523522 14.582727265326424 15.97995696798075 1 0 0
66 0 1 0 4.1260166245723 14.652700364024186 15.896844632245992 0 0 0
8038 0 1 0 1.990878216987282 18.273388293261537 16.152263328185462 1 0 0
8037 0 1 0 1.292370659092527 17.040031294520272 16.054006369532022 1 0 0
8036 0 1 0 1.9993828504261932 15.81201237030979 16.029576162609853 1 0 0
75 0 1 0 5.5565360637308014 14.597373164170696 16.0333544490313 0 0 0
77 0 1 0 5.5405005216300705 17.08999301563951 16.209101877560766 0 0 0
76 0 1 0 6.304393364068308 15.810973443289882 16.10241448392549 0 0 0
86 0 1 0 8.416666734422332 14.600507189089704 15.935018866907393 0 0 0
78 0 1 0 6.268221362800792 18.32824298975074 16.223879786160566 0 0 0
89 0 1 0 7.657170732982164 18.336101983161154 16.197796220987378 0 0 0
88 0 1 0 8.365250412123013 17.13050390614972 16.083820709689224 0 0 0
87 0 1 0 7.7264112385192245 15.853053244102304 16.061198591611355 0 0 0
8040 0 1 0 1.95818443878959 20.76827428485859 16.300619625625956 1 0 0
122 0 1 0 4.150356268734554 21.97966718579641 16.331768172603162 0 0 0
7981 0 1 0 3.414008785998691 20.734868903186502 16.39090499362388 1 0 0
8039 0 1 0 1.2492320910707866 19.524105538227637 16.267804144949714 1 0 0
8091 0 1 0 1.2673779827706768 22.030014978512643 16.32522321459681 1 0 0
70 0 1 0 4.1766440788774055 19.508379076918615 16.440012540203277 0 0 0
131 0 1 0 5.589678333321832 22.038899366808412 16.394467762375907 0 0 0
142 0 1 0 8.421622301201264 22.076573807027017 16.244299623872042 0 0 0
81 0 1 0 7.716386184113533 20.85807917584059 16.31979628183826 0 0 0
80 0 1 0 6.289988282508411 20.7962389335733 16.4015724456423 0 0 0
79 0 1 0 5.611673163784373 19.52894369936294 16.388396419898285 0 0 0
90 0 1 0 8.364073034983052 19.55464554925919 16.265617628123223 0 0 0
8095 0 1 0 1.3012950049541439 26.969160876393655 16.165145581393155 1 0 0
8043 0 1 0 3.4703498938824944 23.265131265641752 16.40372822002508 1 0 0
126 0 1 0 4.141277960974017 26.93499212437587 16.124372160840338 0 0 0
124 0 1 0 4.180042566909245 24.46292992035384 16.219210827931313 0 0 0
8093 0 1 0 1.3101410560601887 24.482676534652278 16.281287887891263 1 0 0
8045 0 1 0 3.395669627970553 25.694553292607093 16.13549615973225 1 0 0
8094 0 1 0 2.012794813528248 25.72180046827194 16.220524628191338 1 0 0
8092 0 1 0 2.0257359541031734 23.27837268334869 16.39038671223168 1 0 0
135 0 1 0 5.56198938150059 26.96766869886772 16.088776888809935 0 0 0
133 0 1 0 5.6013326061344 24.541853132062023 16.22250844347313 0 0 0
134 0 1 0 6.301319563432183 25.770705892482194 16.135909360878895 0 0 0
145 0 1 0 7.744355293442859 25.79443694266062 16.126641177171546 0 0 0
146 0 1 0 8.454408732551304 26.988467575340284 15.979832295484638 0 0 0
132 0 1 0 6.311545700065964 23.319415480681204 16.3550396395331 0 0 0
144 0 1 0 8.463628374777018 24.566436398301555 16.146641294555277 0 0 0
143 0 1 0 7.765024617135093 23.342325611904872 16.315151629482248 0 0 0
8047 0 1 0 3.4635526850499754 28.170531734708966 16.16473506092975 1 0 0
8097 0 1 0 1.281560667709413 29.35181225238925 16.144799025023076 1 0 0
8049 0 1 0 3.418212019837395 30.614398650818302 15.921126288298309 1 0 0
128 0 1 0 4.142625524323341 29.408168169881577 16.135752325231067 0 0 0
8098 0 1 0 2.001191117437899 30.585876978510573 16.016866852740026 1 0 0
130 0 1 0 4.0761256275873015 31.908385116764077 15.840898453115228 0 0 0
8099 0 1 0 1.2516104611518666 31.840512419398728 15.995762418867216 1 0 0
8096 0 1 0 2.009084559496285 28.158697205123968 16.16623775173361 1 0 0
139 0 1 0 5.544276549260631 31.92337925966755 15.783458161295894 0 0 0
137 0 1 0 5.600271670716605 29.414402819258722 15.96641555101686 0 0 0
138 0 1 0 6.236239501742737 30.63328144378276 15.941173982534599 0 0 0
136 0 1 0 6.326240358043857 28.199585276217046 15.963795795740113 0 0 0
148 0 1 0 8.454783739782828 29.430919454892972 15.904811742782481 0 0 0
149 0 1 0 7.707614871571205 30.676418721043106 15.82397405949205 0 0 0
147 0 1 0 7.746148559649829 28.162850330011977 15.932171517847658 0 0 0
150 0 1 0 8.376137291159681 31.931908482325525 15.681899704377244 0 0 0
8100 0 1 0 1.9653036747663517 33.096071958702495 15.662498642869954 1 0 0
8151 0 1 0 1.2983857591627321 34.36684955703941 15.551026149177343 1 0 0
8152 0 1 0 2.0179485494449834 35.52170583366694 15.442147079609876 1 0 0
8103 0 1 0 3.4390259995067427 35.57943008465049 15.262402333385184 1 0 0
8041 0 1 0 3.440758925171826 33.14706960588944 15.634624617607713 1 0 0
182 0 1 0 4.155760942333482 34.331140903665215 15.411597774937988 0 0 0
184 0 1 0 4.190995771805041 36.82926316541929 15.178859555285733 0 0 0
8153 0 1 0 1.2607583332750314 36.76277348609342 15.279101196261989 1 0 0
140 0 1 0 6.272712227466972 33.142511972170595 15.704307734027152 0 0 0
193 0 1 0 5.597523231108333 36.835186955464835 15.194014656842208 0 0 0
202 0 1 0 8.377518410397684 34.41164520748467 15.26653068322808 0 0 0
141 0 1 0 7.702142841811929 33.171235177359925 15.523651939443155 0 0 0
192 0 1 0 6.263117175888417 35.59253924208053 15.217701118711657 0 0 0
203 0 1 0 7.699667989873979 35.65306265455438 15.177597620505106 0 0 0
204 0 1 0 8.42784289166156 36.845092838048096 15.032229134008348 0 0 0
191 0 1 0 5.547401808940381 34.352771842327456 15.419046248849435 0 0 0
8105 0 1 0 3.4348484054235757 38.06004072758742 15.277421153941827 1 0 0
8107 0 1 0 3.4487542941810037 40.49904377155977 15.06393970727217 1 0 0
186 0 1 0 4.175520267185144 39.24144448587725 15.096653982843943 0 0 0
8155 0 1 0 1.2329262581184806 39.30006691650674 15.275258810472673 1 0 0
8156 0 1 0 1.978545043618589 40.54332898481401 15.100565315297887 1 0 0
8154 0 1 0 1.982284096595498 38.04250886369689 15.239945340240777 1 0 0
195 0 1 0 5.605796028572182 39.33966324684777 15.033117429361761 0 0 0
207 0 1 0 7.704426130966845 40.533244053757784 14.70486854315154 0 0 0
205 0 1 0 7.744980093387171 38.05807133530039 15.008245295237582 0 0 0
194 0 1 0 6.312763701283865 38.113202359045786 15.123635897254266 0 0 0
206 0 1 0 8.45289540119689 39.30700143291136 14.796965271259142 0 0 0
196 0 1 0 6.288403464965074 40.52602961698207 14.790502637584895 0 0 0
188 0 1 0 4.109840741262697 41.75883198799437 14.924224850289226 0 0 0
8157 0 1 0 1.294667307088735 41.758529018245916 15.223254791189719 1 0 0
8101 0 1 0 3.426348586014198 45.46470514477033 14.98378248979513 1 0 0
8159 0 1 0 1.307839860041764 44.228527495682336 15.311791494320868 1 0 0
8109 0 1 0 3.4296730335601096 42.999204885803934 15.040857344680667 1 0 0
8158 0 1 0 2.014306577425501 43.00725264633909 15.188769197445328 1 0 0
190 0 1 0 4.183228686672717 44.23581393041644 14.906409601313639 0 0 0
8160 0 1 0 2.0604253464493647 45.47023798304002 15.186218935388098 1 0 0
197 0 1 0 5.5639815107806365 41.79593139140209 14.774914404871032 0 0 0
208 0 1 0 8.405393455349325 41.8108840131095 14.606896434111722 0 0 0
199 0 1 0 5.595140929284549 44.241809908444 14.753403660093683 0 0 0
201 0 1 0 7.671050469344183 45.509686397492366 14.391546183372546 0 0 0
210 0 1 0 8.405756606717876 44.261816048746816 14.362139210992792 0 0 0
198 0 1 0 6.305151041668294 43.00257032747622 14.66459595167328 0 0 0
200 0 1 0 6.298811171343357 45.51274126006367 14.635823366873238 0 0 0
209 0 1 0 7.684543130932929 43.01889307533583 14.575531392623185 0 0 0
8212 0 1 0 2.052239680212122 47.896485943767026 15.140610252049242 1 0 0
8163 0 1 0 3.473690830680858 47.935442764759394 14.97475726778474 1 0 0
242 0 1 0 4.185961818621836 46.68530849253563 15.066982693903807 0 0 0
8214 0 1 0 2.016343160471914 50.34735387760338 14.881101968680163 1 0 0
8211 0 1 0 1.3571260529504712 46.70549774377414 15.327585764810927 1 0 0
8165 0 1 0 3.4064019395009124 50.39155918570802 14.502575583160352 1 0 0
244 0 1 0 4.119949453580426 49.15732718053731 14.71736397058788 0 0 0
8213 0 1 0 1.3423920918309242 49.10645479415759 15.075144156262848 1 0 0
253 0 1 0 5.528235941350425 49.16596888082048 14.601771393598026 0 0 0
251 0 1 0 5.609605396055131 46.68570009732449 14.81633279727289 0 0 0
265 0 1 0 7.693522850857761 50.3981478984036 14.287985628843467 0 0 0
262 0 1 0 8.363332554299614 46.72260952201062 14.32496104643365 0 0 0
263 0 1 0 7.68680608662393 47.98178787382696 14.472188875415515 0 0 0
254 0 1 0 6.25157989835259 50.36212788086792 14.395965517128595 0 0 0
252 0 1 0 6.241992776464307 47.978115942775354 14.653790134136024 0 0 0
264 0 1 0 8.40058657442006 49.18144072637127 14.305586177733653 0 0 0
8215 0 1 0 1.2964332842218125 51.51890170868831 14.828372226112757 1 0 0
246 0 1 0 4.098240605924856 51.58084553179164 14.263670036868794 0 0 0
8218 0 1 0 1.9605954496514433 55.330655830655346 14.44438266732582 1 0 0
8167 0 1 0 3.338313969388785 52.81514909974428 14.208426322031782 1 0 0
8216 0 1 0 1.9555894459901288 52.81169902550755 14.544280024882545 1 0 0
248 0 1 0 4.04126529209835 54.04891713398123 14.061193355241466 0 0 0
8217 0 1 0 1.2882259458383964 54.06232532356951 14.634705850478431 1 0 0
8169 0 1 0 3.3660651996281445 55.327579934653535 14.26026237890816 1 0 0
268 0 1 0 8.321118997955647 54.09222570960072 13.59384905239432 0 0 0
258 0 1 0 6.219785616178228 55.2303658753573 13.884876325728913 0 0 0
256 0 1 0 6.231263062032115 52.83576154441818 13.859619831654364 0 0 0
255 0 1 0 5.5661446866002064 51.60727968030703 14.162956610406127 0 0 0
269 0 1 0 7.6202597767018 55.285815276299466 13.802330421635244 0 0 0
266 0 1 0 8.40804508716298 51.60398024502154 14.058828806251142 0 0 0
257 0 1 0 5.4702309103512174 54.01716779895028 13.868601753164082 0 0 0
267 0 1 0 7.650013507310037 52.832432935709164 13.811784336139919 0 0 0
8161 0 1 0 3.408678539092999 57.8219639899813 14.171903322195874 1 0 0
8219 0 1 0 1.3019752080381584 56.572375658206994 14.529856971501637 1 0 0
302 0 1 0 4.062297109963103 59.02777143489087 14.040104428612985 0 0 0
8271 0 1 0 1.255545318817128 59.01268496694722 14.467289315548985 1 0 0
8220 0 1 0 1.9956344156068369 57.81604232427307 14.433976754068562 1 0 0
250 0 1 0 4.111300944551308 56.58025680851856 14.163094777008444 0 0 0
311 0 1 0 5.518924203204772 59.01176665439044 13.91306636035119 0 0 0
259 0 1 0 5.513388487350669 56.52356967671847 14.03522630431906 0 0 0
322 0 1 0 8.38130697030013 59.055140427970514 13.712214885001602 0 0 0
270 0 1 0 8.290760282098335 56.53113985746152 13.753754410722221 0 0 0
260 0 1 0 6.195236267640724 57.76090968097424 13.910407758692806 0 0 0
261 0 1 0 7.6424713770079835 57.80262010267737 13.809917667144095 0 0 0
8272 0 1 0 1.9310354320260275 60.255614881335475 14.378320711076675 1 0 0
8223 0 1 0 3.319439139411351 60.21626820667787 14.175708367223105 1 0 0
8273 0 1 0 1.2452170000263476 61.44294954982714 14.640149525623057 1 0 0
8225 0 1 0 3.367994387745263 62.728927418018046 14.174707823654211 1 0 0
8275 0 1 0 1.3188173900265057 63.95889989375286 14.529127377685345 1 0 0
8274 0 1 0 1.9692975594904474 62.70069086933963 14.441448174522174 1 0 0
306 0 1 0 4.112935093345256 63.95345128432909 14.159675113185575 0 0 0
304 0 1 0 4.0501845603258815 61.488830561644626 14.10778771000472 0 0 0
323 0 1 0 7.603673861327829 60.27017597158044 13.874795047101358 0 0 0
312 0 1 0 6.176837439337759 60.251418847576645 13.915177027341283 0 0 0
313 0 1 0 5.482383254471557 61.477740836687744 13.997315982962757 0 0 0
315 0 1 0 5.520582890341547 63.9742899371788 14.128945244481075 0 0 0
314 0 1 0 6.206744940114942 62.74377624866593 14.041242955977449 0 0 0
325 0 1 0 7.640801970183913 62.73223486902386 13.957910003870886 0 0 0
326 0 1 0 8.381541234680023 63.92819881861125 13.996100424074626 0 0 0
324 0 1 0 8.359377536418814 61.508575677504794 13.852530501038125 0 0 0
8227 0 1 0 3.4530931761208135 65.16860436465318 14.241389430125867 1 0 0
308 0 1 0 4.13533874435345 66.3973436064598 14.330550539766843 0 0 0
8277 0 1 0 1.2192306227298382 66.38198597123643 14.457962255584317 1 0 0
8278 0 1 0 1.9217426554078538 67.6162403776017 14.428311606135585 1 0 0
8229 0 1 0 3.3536855754486625 67.62040415084986 14.359536958739973 1 0 0
310 0 1 0 4.047809383404902 68.859710176679 14.420537710159998 0 0 0
8279 0 1 0 1.2508958968410706 68.8870319318265 14.681945294694584 1 0 0
8276 0 1 0 1.9834052085110176 65.21604663870646 14.391965041180667 1 0 0
319 0 1 0 5.465218945707021 68.83073680425309 14.474772081300625 0 0 0
317 0 1 0 5.5403336097696245 66.4383393995215 14.36135444164579 0 0 0
316 0 1 0 6.237572962561084 65.1900081133429 14.220872780432071 0 0 0
329 0 1 0 7.64483838005918 67.65819152182058 14.130058876638014 0 0 0
328 0 1 0 8.389791690262568 66.42057747743632 13.867105467600496 0 0 0
318 0 1 0 6.269999787280404 67.67805507458542 14.38097352064307 0 0 0
330 0 1 0 8.383546632402599 68.87508381354944 14.100400975466973 0 0 0
327 0 1 0 7.663923977449808 65.21677159934671 14.056344490377908 0 0 0
8221 0 1 0 3.4131842477215226 70.07042637059556 14.593508182151481 1 0 0
8332 0 1 0 1.9702536066426501 72.52409876234327 14.978929071955749 1 0 0
8333 0 1 0 1.2605314544405128 73.78398229309032 15.139167249438884 1 0 0
8283 0 1 0 3.3650538248903556 72.54148257435817 14.967628653579307 1 0 0
8331 0 1 0 1.2392405032229405 71.34160768672508 14.918922192156685 1 0 0
364 0 1 0 4.050241884670382 73.81859665731872 15.050850085491346 0 0 0
362 0 1 0 4.077531767578826 71.298005647891 14.6977374671744 0 0 0
8280 0 1 0 1.9996475855767788 70.14180532122944 14.713424444528103 1 0 0
382 0 1 0 8.316023147896372 71.31954512894097 14.264324787419802 0 0 0
321 0 1 0 7.656689639777574 70.08776892754818 14.276898278954892 0 0 0
373 0 1 0 5.495780192072204 73.75904217169153 15.01311431003178 0 0 0
383 0 1 0 7.627767064866227 72.54258668312555 14.4385052686246 0 0 0
371 0 1 0 5.504403460404687 71.28598331628297 14.652177796624096 0 0 0
372 0 1 0 6.259180642040774 72.5169684987281 14.729491931150024 0 0 0
320 0 1 0 6.222883399268122 70.0884563457474 14.457566869580754 0 0 0
384 0 1 0 8.308836450082763 73.76588780500666 14.530406889755229 0 0 0
8285 0 1 0 3.4147295435563465 75.04583601664189 15.202993162993273 1 0 0
366 0 1 0 4.118500787341775 76.27011196955381 15.352211918265311 0 0 0
8334 0 1 0 1.9469109061872107 75.03661505174577 15.148749790142944 1 0 0
8287 0 1 0 3.3303539806345808 77.46226943904237 15.472252365685707 1 0 0
8336 0 1 0 1.8716046372581099 77.48410225062241 15.482671469525055 1 0 0
8335 0 1 0 1.1282740658533754 76.2490668946291 15.376639481715927 1 0 0
375 0 1 0 5.531543411327338 76.29502329452438 15.31873846961233 0 0 0
376 0 1 0 6.203952390827529 77.50797455336668 15.297914730361704 0 0 0
374 0 1 0 6.213982841125261 75.02833525588794 15.047542787320964 0 0 0
387 0 1 0 7.682249577988535 77.51330854001998 15.168605508332584 0 0 0
386 0 1 0 8.348628689926553 76.20654891359627 14.931687788619383 0 0 0
385 0 1 0 7.616338955304841 74.96887204544588 14.83656893980799 0 0 0
8337 0 1 0 1.2107802415170468 78.73899041156034 15.519612711373492 1 0 0
368 0 1 0 4.055971724587432 78.6840215204431 15.581303808550857 0 0 0
8289 0 1 0 3.375326992050291 79.94305285646041 15.639752925820734 1 0 0
8340 0 1 0 1.9948339836235416 82.40083521461892 15.946440742491145 1 0 0
8338 0 1 0 1.9466185643525706 79.94225158822486 15.727721941122958 1 0 0
370 0 1 0 4.128034405262647 81.16800100732786 15.657053194242387 0 0 0
8281 0 1 0 3.3875091427140425 82.37557625528255 15.785367815724177 1 0 0
8339 0 1 0 1.2255022549424648 81.20533477147931 15.815989043153618 1 0 0
388 0 1 0 8.391220610759936 78.76280896406092 15.05020127007639 0 0 0
377 0 1 0 5.452767682267384 78.71165084642264 15.43515275864464 0 0 0
379 0 1 0 5.583202263095382 81.19603867007923 15.4648304704046 0 0 0
378 0 1 0 6.205517720824906 79.9370962972136 15.439632853345438 0 0 0
380 0 1 0 6.288690540981232 82.42417260549963 15.557671886180819 0 0 0
389 0 1 0 7.666042511686812 79.95423993165588 15.340865624096761 0 0 0
381 0 1 0 7.733697419720072 82.4163847232712 15.447102671343904 0 0 0
390 0 1 0 8.4189673217393 81.15906213705796 15.307198640418477 0 0 0
8392 0 1 0 1.9856858513823579 84.8933715190677 15.813761985340902 1 0 0
422 0 1 0 4.1053374998500365 83.62222014832382 15.783750861471372 0 0 0
8394 0 1 0 2.007276678514429 87.31467448181652 16.030272584637192 1 0 0
8343 0 1 0 3.4245107341766965 84.85616055067032 15.796216095539444 1 0 0
424 0 1 0 4.133477393734303 86.09364061849762 15.685645253766397 0 0 0
8345 0 1 0 3.4053512255462017 87.32981563688303 15.791609233752894 1 0 0
8391 0 1 0 1.316517515900345 83.59908596380507 15.947911667918904 1 0 0
8393 0 1 0 1.2633601135314243 86.09880511782153 15.978000834750544 1 0 0
431 0 1 0 5.507267247047628 83.6370067863599 15.753891798185371 0 0 0
433 0 1 0 5.57585889089905 86.08943111244618 15.689000019338033 0 0 0
432 0 1 0 6.260258497931876 84.85126007117054 15.769121044964086 0 0 0
434 0 1 0 6.317809784473459 87.32632834611478 15.731695042155152 0 0 0
443 0 1 0 7.712565712008067 84.90812526156844 15.750264758325185 0 0 0
444 0 1 0 8.47322909768453 86.09394792745508 15.842309826785272 0 0 0
442 0 1 0 8.394817854285373 83.65894876927896 15.533688126476562 0 0 0
445 0 1 0 7.709014994691528 87.33728518127371 15.947706258048564 0 0 0
426 0 1 0 4.100520185874859 88.56119895180501 15.781760343817785 0 0 0
8347 0 1 0 3.406775517294018 89.80903923166574 15.942731471278154 1 0 0
428 0 1 0 4.076488170022159 91.04139149017801 15.923301091106236 0 0 0
8396 0 1 0 1.9627811726279967 89.8269877892535 16.03889575669143 1 0 0
8398 0 1 0 1.972975675885879 92.30511901366816 16.093088013589572 1 0 0
8397 0 1 0 1.2138288371300596 91.05778292299068 16.078253050155567 1 0 0
8395 0 1 0 1.2808156666310144 88.51397278842246 16.091479143058887 1 0 0
8349 0 1 0 3.373930352898535 92.32017870882213 16.05304288357906 1 0 0
446 0 1 0 8.426726108371225 88.56265879953631 15.864415224511271 0 0 0
447 0 1 0 7.722627252215371 89.81865088840954 15.759860555170482 0 0 0
449 0 1 0 7.684324241469032 92.32777960633516 15.761444564265792 0 0 0
448 0 1 0 8.448734572646446 91.08594061394017 15.766463655161848 0 0 0
437 0 1 0 5.519512259833407 91.07551168115535 15.790403843328619 0 0 0
436 0 1 0 6.278457422818791 89.83358347493585 15.810748144574413 0 0 0
435 0 1 0 5.588292077001371 88.59442620299467 15.761550717793956 0 0 0
438 0 1 0 6.230996963531361 92.2777535979776 15.820118094426856 0 0 0
8400 0 1 0 2.0229283800439206 94.83183256846367 16.294894012864585 1 0 0
482 0 1 0 4.149590730897495 95.99965706328034 16.213637484933756 0 0 0
430 0 1 0 4.1293902972099366 93.51317517152084 16.08169040694381 0 0 0
8341 0 1 0 3.4177688251089613 94.78834007239321 16.273898796523365 1 0 0
8451 0 1 0 1.2587740799920584 96.0400567307545 16.207708029192958 1 0 0
8399 0 1 0 1.273355252010376 93.56119382608979 16.197503303376372 1 0 0
439 0 1 0 5.592644879455103 93.57171290830014 15.952507131719027 0 0 0
491 0 1 0 5.636585135230769 96.00642683892721 16.20461152083703 0 0 0
440 0 1 0 6.345255678876162 94.79988932395972 15.994411154295994 0 0 0
441 0 1 0 7.76777396578144 94.75376544391175 16.025364142344177 0 0 0
502 0 1 0 8.488680983594644 95.94130778839111 16.201314631912016 0 0 0
450 0 1 0 8.41818387206133 93.50529693218247 15.90135594512151 0 0 0
8452 0 1 0 2.0296104036806684 97.25183505713154 16.281011353110372 1 0 0
8403 0 1 0 3.4465910530525337 97.2292637825141 16.25999263638016 1 0 0
484 0 1 0 4.142436866269815 98.47391667091391 16.206916026480013 0 0 0
8405 0 1 0 3.4379469817509767 99.73408596900079 16.244576118005522 1 0 0
8453 0 1 0 1.2585807329469643 98.46528069815423 16.271711807877544 1 0 0
486 0 1 0 4.123879047840498 100.99934163540755 16.316712122726482 0 0 0
8454 0 1 0 1.9339664191422146 99.7072355657385 16.2051340005614 1 0 0
8455 0 1 0 1.2591803448596577 100.97644019062211 16.239063226749252 1 0 0
492 0 1 0 6.313772400274376 97.23735085006403 16.28774137605513 0 0 0
503 0 1 0 7.739968890829749 97.21888823332503 16.32631863789492 0 0 0
504 0 1 0 8.426943688611908 98.44762538279538 16.224412098896106 0 0 0
506 0 1 0 8.438171220764376 101.01610493384564 16.288013137891966 0 0 0
493 0 1 0 5.573338340303544 98.45057487126421 16.236854629262183 0 0 0
494 0 1 0 6.314145998493958 99.70460269694775 16.261506495968693 0 0 0
505 0 1 0 7.7432082105836715 99.71576639007411 16.2219417445607 0 0 0
495 0 1 0 5.589394507294396 100.96360305680236 16.42513045866199 0 0 0
8409 0 1 0 3.4231244527970754 104.7065077355128 16.409960757339057 1 0 0
8456 0 1 0 1.9696754242772194 102.2201611871763 16.353598044233625 1 0 0
8407 0 1 0 3.403038637519218 102.19749497403248 16.417313130269196 1 0 0
488 0 1 0 4.12850193589832 103.43682562001268 16.512915856984822 0 0 0
490 0 1 0 4.118555881915031 105.96318256296945 16.3681398691799 0 0 0
8457 0 1 0 1.2119393453464227 103.49921335612622 16.284801323235992 1 0 0
8458 0 1 0 1.9884430839462135 104.6835315186073 16.267574868437226 1 0 0
8459 0 1 0 1.2576847972800134 105.93704935017966 16.24804725301327 1 0 0
507 0 1 0 7.714670798559383 102.20586159785098 16.405585982049057 0 0 0
510 0 1 0 8.411237080518548 105.97377376031156 16.51725710794085 0 0 0
496 0 1 0 6.311212839112774 102.21305366436802 16.56820199309704 0 0 0
509 0 1 0 7.69837893656832 104.68199125991838 16.442472913848896 0 0 0
508 0 1 0 8.395338081514996 103.45371527990966 16.41635270821307 0 0 0
498 0 1 0 6.269322320072564 104.69130875919126 16.41294135267828 0 0 0
497 0 1 0 5.538765346709217 103.42894584031211 16.482618885346398 0 0 0
499 0 1 0 5.543326145257897 105.93932005711666 16.425032160855157 0 0 0
544 0 1 0 4.089142952871198 110.89347843266358 16.546488034343433 0 0 0
8463 0 1 0 3.4037495442017494 109.6606623418612 16.542520340791487 1 0 0
542 0 1 0 4.1264879374088554 108.42101976764079 16.414008017140937 0 0 0
8512 0 1 0 1.9502649781271857 109.6116466283394 16.510315958466418 1 0 0
8460 0 1 0 1.965029339123616 107.14849660527226 16.427295235459916 1 0 0
8511 0 1 0 1.2853829016088876 108.40344772712503 16.37266421176562 1 0 0
8401 0 1 0 3.394584123833389 107.17454874707978 16.333349013433082 1 0 0
8513 0 1 0 1.269096405360153 110.91050352326047 16.52111240695562 1 0 0
562 0 1 0 8.40068667615198 108.37066204169047 16.386009379426394 0 0 0
564 0 1 0 8.450454294806306 110.92573251749056 16.468293594272126 0 0 0
563 0 1 0 7.695410897898187 109.63768695171245 16.366405265597486 0 0 0
501 0 1 0 7.675831387125004 107.11816452368714 16.46215788566933 0 0 0
500 0 1 0 6.266972782149623 107.12589661399231 16.48828582558184 0 0 0
552 0 1 0 6.276393288853743 109.61998715391975 16.450530103950975 0 0 0
551 0 1 0 5.566591030370997 108.40867892633065 16.528769192731623 0 0 0
553 0 1 0 5.549140922039543 110.91191569715694 16.513160679404514 0 0 0
8465 0 1 0 3.4014084839577565 112.145890032455 16.657470190485554 1 0 0
8467 0 1 0 3.4071231823397548 114.63973609561512 16.805782387981868 1 0 0
546 0 1 0 4.113277874239224 113.34648195040519 16.702536206682375 0 0 0
8514 0 1 0 1.9754399159125318 112.13609507946308 16.665784478548357 1 0 0
555 0 1 0 5.597375737547554 113.38482747975169 16.722001831877964 0 0 0
556 0 1 0 6.328516598247068 114.58967600801991 16.777212715578028 0 0 0
554 0 1 0 6.284831276125635 112.14611406818717 16.4796249352235 0 0 0
565 0 1 0 7.712386016105834 112.1220191082519 16.435564741082334 0 0 0
567 0 1 0 7.699365742418193 114.60420119904617 16.648908409419715 0 0 0
566 0 1 0 8.459419379595543 113.37020216300111 16.44842145864779 0 0 0
548 0 1 0 4.144024600065167 115.8621143479879 16.91977198371741 0 0 0
8469 0 1 0 3.4210775564137874 117.0932959400614 17.004394177119508 1 0 0
8519 0 1 0 1.3099213972103043 118.32867577155494 16.814650002368815 1 0 0
557 0 1 0 5.590463991111661 115.82913705675301 16.778374344661874 0 0 0
568 0 1 0 8.436340142817546 115.82502260065907 16.57606771242373 0 0 0
570 0 1 0 8.483359506526906 118.31266164813677 16.61080369465152 0 0 0
560 0 1 0 6.305111227163032 119.52808766647574 16.794708184130705 0 0 0
569 0 1 0 7.7687322415582 117.06673440320478 16.639048935810298 0 0 0
561 0 1 0 7.73798139510562 119.54078198614668 16.6725032496818 0 0 0
611 0 1 0 5.561747167789283 120.77388953351033 16.682107620855874 0 0 0
622 0 1 0 8.447432749058184 120.78573944288314 16.542609019530857 0 0 0
612 0 1 0 6.248020683651636 122.02057134686075 16.438102816868376 0 0 0
8576 0 1 0 2.0672482747596885 126.93512123130596 16.47080618371709 1 0 0
8578 0 1 0 2.027090648320031 129.40466378970592 16.216330549601523 1 0 0
8527 0 1 0 3.4777067052907364 126.92419530551574 16.350966545457364 1 0 0
8529 0 1 0 3.435049861870426 129.3900531838516 16.183587945892587 1 0 0
608 0 1 0 4.191757570324893 128.16053681080717 16.173250248348214 0 0 0
8577 0 1 0 1.3073669874624954 128.1207864858 16.25419131379178 1 0 0
618 0 1 0 6.272261046188058 129.37444701534915 16.086327313265006 0 0 0
627 0 1 0 7.768679842332393 126.94911118507358 16.049922349840212 0 0 0
628 0 1 0 8.468075498572864 128.14531567066106 16.042638932852615 0 0 0
629 0 1 0 7.700606023651024 129.40471475268947 15.98353710444205 0 0 0
617 0 1 0 5.579341909229861 128.14218741039744 15.999928464326004 0 0 0
626 0 1 0 8.406988307670128 125.68894518563295 16.16798710995431 0 0 0
8516 0 1 0 1.9611370836422237 114.61446190764124 16.72334270732117 1 0 0
8515 0 1 0 1.278938033722178 113.36533711718279 16.553921248755326 1 0 0
550 0 1 0 4.1361682015067265 118.31980922983614 16.89276997340111 0 0 0
8461 0 1 0 3.4445218113680847 119.57420568423159 16.858018438807687 1 0 0
8517 0 1 0 1.2587782586986294 115.84763726289698 16.831887357678227 1 0 0
8520 0 1 0 2.027973241496133 119.53425021201333 16.764767127987124 1 0 0
8518 0 1 0 2.009592142196608 117.11775727274774 16.971257110363016 1 0 0
559 0 1 0 5.560820668538608 118.29417549791378 16.75834372091719 0 0 0
558 0 1 0 6.313395665523442 117.05797260016871 16.834078970199894 0 0 0
602 0 1 0 4.10898006760488 120.81017369661302 16.747316892762697 0 0 0
8525 0 1 0 3.4577242439195417 124.47265330762077 16.40680336086247 1 0 0
8523 0 1 0 3.4150571996741004 122.06382354664291 16.629719397624957 1 0 0
604 0 1 0 4.147051117157171 123.28088470161015 16.494813578602304 0 0 0
8573 0 1 0 1.3168557457719836 123.29114232399957 16.55901492012257 1 0 0
8574 0 1 0 2.0077891603996063 124.50668555985642 16.503957788509897 1 0 0
8572 0 1 0 1.9894953564100064 122.0401645683987 16.653308122709305 1 0 0
8571 0 1 0 1.3261951447945381 120.77305196301711 16.672887311271463 1 0 0
624 0 1 0 8.437548369347512 123.26238698324204 16.337911733321754 0 0 0
623 0 1 0 7.748169803449857 122.04323169137214 16.44512787486801 0 0 0
625 0 1 0 7.704222462661131 124.46164075673205 16.25287342656616 0 0 0
614 0 1 0 6.270195074066653 124.44376473076363 16.179670045636318 0 0 0