LAMMPS data file via write_data, version 4 Feb 2025, timestep = 500000, units = metal

1560 atoms
2 atom types

0 25.668 xlo xhi
0 24.7 ylo yhi
0 75 zlo zhi

Masses

1 1.007999999740698
2 15.99899999588435

Atoms # full

351 0 1 0 2.4399759680961712 0.4760899138867959 37.272750221252366 16 1 7
200 0 1 0 5.518129147963423 4.984606105136872 36.542140001003695 15 2 7
199 0 2 0 6.35546563532658 5.397040417568767 36.795871566156016 15 2 7
349 0 2 0 1.7836488821002399 0.9708049252885493 36.7573371602699 16 1 7
913 0 2 0 3.0691864247610883 5.6887156314017435 34.97790816698342 16 -1 7
350 0 1 0 1.892880977994811 0.9365683859078023 35.76402510850616 16 1 7
1426 0 2 0 4.321105825976005 3.165481198619982 38.74222187752108 14 1 7
101 0 1 0 2.0074109317618336 0.8022234958110743 40.78248278040035 15 0 7
102 0 1 0 1.6344216982703772 2.4311459295032303 40.98908423043114 15 0 7
1132 0 2 0 0.9184359935792622 4.073290164521483 41.308796475722005 15 -1 7
1427 0 1 0 4.121731679044859 3.793722076698222 39.42346127578405 14 1 7
100 0 2 0 2.278383029710694 1.6682239287151568 41.19904375883798 15 0 7
1349 0 1 0 0.5615594025824107 3.8055507461238736 38.09895576196261 13 3 7
1341 0 1 0 2.0890123224170405 5.272250528481419 40.19068502537667 17 2 7
1350 0 1 0 1.4015601390005432 2.5683242276531835 37.61892499268879 13 3 7
1348 0 2 0 1.1001312124325813 3.0451983277702594 38.409706690991115 13 3 7
782 0 1 0 5.53399507304962 2.295916771502546 42.123408598604115 14 0 7
783 0 1 0 4.025540271464081 1.7906233463164258 41.680304426955075 14 0 7
1428 0 1 0 3.6315556966585425 2.450795724540648 38.682503558638786 14 1 7
1340 0 1 0 2.539934275487092 5.381390406782535 38.7923010298324 17 2 7
1339 0 2 0 2.6331546613101824 5.855841449650811 39.64844223475306 17 2 7
398 0 1 0 6.401382008882441 3.2655743375841038 38.934653963074844 13 2 7
690 0 1 0 1.8062800515797572 5.399130904424348 46.42900875605591 13 0 7
1229 0 1 0 2.6744983799663875 1.8718060055060395 44.62073697684255 16 1 7
1228 0 2 0 1.9477857312750204 1.3509729224269358 44.32226998278066 16 1 7
561 0 1 0 6.003368560553002 5.1501881637909905 45.42581581441117 13 1 7
654 0 1 0 0.8208201205655627 5.40480999994538 44.28633589208672 15 2 7
1024 0 2 0 4.488272355963928 2.3880618174551014 44.84457726314424 16 2 7
1230 0 1 0 1.9161063795152047 1.424372216682036 43.324269772241635 16 1 7
1026 0 1 0 4.560202731308431 2.0227748545970807 43.9025022381143 16 2 7
652 0 2 0 0.14691481551725086 5.472364319785553 43.56284615376467 15 2 7
1134 0 1 0 0.7067381864023261 4.279210392377555 42.25498859629044 15 -1 7
1025 0 1 0 5.2254967275418585 3.072056963812138 45.024662827041524 16 2 7
781 0 2 0 4.8265906590267855 1.6592597929940234 42.30507654785324 14 0 7
923 0 1 0 3.5877972798708733 6.144389717033268 44.282815120101425 14 1 7
321 0 1 0 3.8149088763611325 1.8856524036107165 46.65391903697208 15 -1 7
309 0 1 0 5.436337325150139 0.7939950164165668 45.21068737804723 16 2 7
307 0 2 0 5.94951434510048 0.021883611563505576 45.51275001647748 16 2 7
688 0 2 0 2.398713498437311 6.038977948028675 45.94782552323286 13 0 7
269 0 1 0 5.885255614659271 2.805664656082591 50.822191953790465 15 -1 7
140 0 1 0 5.942579693790643 1.1281639072514664 49.37021663548253 14 2 7
763 0 2 0 0.4829869960891239 2.6249516740657364 47.98800599994793 16 1 7
486 0 1 0 3.086890875520832 3.1404904212467457 50.06540367826902 14 2 7
139 0 2 0 5.639430856073851 2.0490553589242975 49.13713998438295 14 2 7
764 0 1 0 1.4161690577302086 2.81730946633713 47.841549412233796 16 1 7
319 0 2 0 3.3812620224146617 1.9642799675724565 47.50771496752322 15 -1 7
883 0 2 0 3.1856384529480466 1.1236735472532753 50.238032898698634 15 1 7
765 0 1 0 0.3003889027007556 2.8883018486007406 48.91404747473688 16 1 7
1218 0 1 0 5.23921852312597 5.61672990699586 50.04824189481371 15 1 7
320 0 1 0 2.772453687791736 1.2352783262934186 47.55564371659268 15 -1 7
141 0 1 0 4.746382365576581 1.8273960751528853 48.83995224427809 14 2 7
1217 0 1 0 4.598003795872624 5.92174839389054 48.59492938552606 15 1 7
1216 0 2 0 4.352302575384465 5.706921397090033 49.55850455954666 15 1 7
484 0 2 0 2.3338958084701855 3.764980953947993 50.20970545189026 14 2 7
485 0 1 0 2.6649841944100334 4.615107779106058 49.791705352997425 14 2 7
884 0 1 0 3.6101936471654135 1.1593138688761062 51.074458109038645 15 1 7
885 0 1 0 2.246783020802627 0.8996193427975758 50.32358271056068 15 1 7
1232 0 1 0 0.8088717062758249 6.091892630585425 48.700131607769976 16 1 7
932 0 1 0 0.49241509717088355 1.5140833618934193 52.03743824876477 16 2 7
270 0 1 0 5.694573480187004 3.5716756872786384 52.105322499446565 15 -1 7
926 0 1 0 2.4882094315817924 3.6655683277180047 54.933131896095496 17 0 7
1020 0 1 0 5.648523400384304 5.380011230404352 53.60185185595742 13 1 7
931 0 2 0 1.0044602531318112 2.24658171035879 52.40289359024121 16 2 7
289 0 2 0 4.5017640548294064 1.1838463597952356 52.86623237378172 15 1 7
1206 0 1 0 3.463932368027487 4.290585088021969 53.23600984811468 15 0 7
927 0 1 0 1.9615359030479178 2.7400246593934496 53.663459054083944 17 0 7
221 0 1 0 4.506670271210066 4.985683861712589 55.87384933042519 15 1 7
646 0 2 0 0.6499623770500429 4.924982110289483 55.518593120711834 14 1 7
925 0 2 0 2.713131097460208 3.1740770376910556 54.13894077134257 17 0 7
647 0 1 0 0.6307913834197788 5.40103816865169 54.71198837075711 14 1 7
1205 0 1 0 3.6840880600852346 4.922887776584865 51.83727307514518 15 0 7
290 0 1 0 4.10281955595237 1.8197342443295934 53.487272178657975 15 1 7
1204 0 2 0 4.1338341636396825 4.892765943247195 52.72646592610988 15 0 7
291 0 1 0 5.340591864280332 1.5289988978993942 52.53869120166079 15 1 7
933 0 1 0 1.1460911393330782 2.7966373376299916 51.61816198145294 16 2 7
648 0 1 0 0.15562960281686683 5.478596152270532 56.142442986746694 14 1 7
268 0 2 0 6.257389245402303 2.9146423106397235 51.69599392290264 15 -1 7
824 0 1 0 3.039685319504729 2.7859151291080897 58.097105090270944 15 1 7
222 0 1 0 4.479027938408002 3.7850825325266193 56.84364937076066 15 1 7
1049 0 1 0 1.7609690509706688 5.618350472403142 58.5731312358099 15 0 7
1306 0 2 0 4.9954025250147 0.5358720399246661 58.96736418170156 15 1 7
1308 0 1 0 4.421171842912435 1.1919662710454262 59.38492104498767 15 1 7
220 0 2 0 3.934204471671728 4.522967809307774 56.483948829075075 15 1 7
823 0 2 0 2.921951807454237 3.0604881648900046 59.068178172280426 15 1 7
825 0 1 0 2.2741078478903924 2.3997661830387784 59.26300160531335 15 1 7
1307 0 1 0 4.47155592452851 0.12572223719502548 58.30940931488886 15 1 7
174 0 1 0 0.19450358573753235 0.44141773870822715 56.90068163836461 15 1 7
1234 0 2 0 6.156228083196196 2.369462334903858 56.58458191716725 15 2 7
1050 0 1 0 2.8541363782154168 5.516348939140192 57.592358908771104 15 0 7
1372 0 2 0 4.573107939379237 0.5880269995461109 62.560856156366256 14 1 7
1373 0 1 0 3.7459925941584613 0.7027305306546345 61.94627721128869 14 1 7
1374 0 1 0 4.815101953439997 1.4749040055218938 62.710316377955 14 1 7
365 0 1 0 1.4059140603731604 0.5934342683400414 60.943071625715845 15 0 7
364 0 2 0 2.369826267019965 0.3459617696983278 60.98680266384862 15 0 7
249 0 1 0 3.2821884304849926 9.969398272101014 36.7485843427316 16 -1 7
1282 0 2 0 0.3990002935526827 9.943880653289138 36.70868408471609 15 1 7
457 0 2 0 1.2321321176206308 7.300339735746269 36.86752787261749 15 1 7
880 0 2 0 5.2546059516300305 11.901045963491644 35.65600246729544 13 0 7
1284 0 1 0 1.2338811067569533 10.376136168990048 36.37036578489982 15 1 7
248 0 1 0 3.4545548426149053 11.30115016799622 36.02308073662007 16 -1 7
247 0 2 0 2.847414423326322 10.578974302559523 36.02139000256222 16 -1 7
459 0 1 0 0.9003930126293002 8.221260104472744 36.49491685303516 15 1 7
914 0 1 0 3.6181457163770685 6.288908105815962 34.463604133319485 16 -1 7
881 0 1 0 5.77189415362627 11.19339579359975 35.272659214814475 13 0 7
368 0 1 0 5.926021562927881 9.162116241699204 36.14922246786623 15 2 7
369 0 1 0 5.138072962648367 8.766907879826343 34.7848054586999 15 2 7
367 0 2 0 5.76557877897909 9.389380956648711 35.15949628743707 15 2 7
915 0 1 0 2.4688901325074157 6.30390267218344 35.510729159779444 16 -1 7
1192 0 2 0 4.968666418515924 6.73813655919753 41.23170789260857 15 0 7
448 0 2 0 3.576645454578576 11.229173590030067 40.102283950070785 15 2 7
394 0 2 0 3.6176879343498616 8.918028264217014 38.155612130539424 14 2 7
808 0 2 0 0.5568053282541039 8.300262576009734 40.99234261837165 16 0 7
810 0 1 0 1.2633452671521241 7.655663565108241 40.85909624983928 16 0 7
956 0 1 0 5.31360511681571 8.708855996068374 41.02692723832744 14 0 7
1193 0 1 0 4.445899577918862 6.287287639984869 40.50623902331465 15 0 7
450 0 1 0 4.39554423083391 10.74327423167423 40.48767583257394 15 2 7
1194 0 1 0 4.445614029801747 6.649492156030316 42.07935323118337 15 0 7
396 0 1 0 3.4591109020910276 9.599151779860925 38.85562370865626 14 2 7
395 0 1 0 4.52005612276797 8.66970431322869 38.26770273054708 14 2 7
449 0 1 0 2.8624232220848067 11.194940925711007 40.74448799477143 15 2 7
809 0 1 0 0.4715240472516286 8.50760674680047 41.93465972903242 16 0 7
957 0 1 0 6.308659077224879 9.710936856014813 41.654148146330826 14 0 7
1141 0 2 0 6.25902847212017 8.005457056924977 38.152208657336715 15 0 7
955 0 2 0 5.76502863857241 9.567565333298825 40.83331002038177 14 0 7
1527 0 1 0 0.2805848681874703 9.631113169909222 39.82133666757962 16 0 7
1142 0 1 0 6.262580242069063 7.0419337328393246 37.865629767741275 15 0 7
1526 0 1 0 0.1331668846974452 10.128530590791149 38.35249894045889 16 0 7
458 0 1 0 1.8629401492435744 7.431839816555443 37.60640430942921 15 1 7
718 0 2 0 4.355490533594225 9.146839395220711 44.34121676688154 14 2 7
744 0 1 0 3.996102968236528 11.505241073823985 45.20514546744252 14 2 7
720 0 1 0 3.947464108668452 9.313414712139199 45.208651349292204 14 2 7
1345 0 2 0 1.0805992161195026 8.626619832979282 45.57585829854034 14 1 7
689 0 1 0 1.918396194128743 6.927253444796015 45.9818777737728 13 0 7
692 0 1 0 4.213671862981133 6.526461967702668 46.60382437594513 13 2 7
719 0 1 0 5.291301134105998 9.465863062426822 44.41743878503403 14 2 7
1347 0 1 0 0.45539491156498263 8.589074311948444 44.79849228203035 14 1 7
988 0 2 0 2.870252907241891 11.20817671006317 42.85394004152124 14 -1 7
989 0 1 0 3.3718121999129513 10.393444362179686 43.03103050370456 14 -1 7
1346 0 1 0 0.6099438705399836 8.923048640159346 46.417809311237775 14 1 7
1460 0 1 0 1.3682569380298906 11.993621447671119 46.10116661757043 15 2 7
922 0 2 0 4.385693815215962 6.480269245695408 43.843637790695155 14 1 7
1365 0 1 0 0.8765723850165912 11.876598633323036 42.584594829671474 15 1 7
300 0 1 0 6.12699583752375 11.24122082149938 45.55719234892374 13 0 7
924 0 1 0 4.45916156712633 7.482811895486158 44.08208174958447 14 1 7
990 0 1 0 3.3887395667587294 11.82257944408461 43.3397423607677 14 -1 7
742 0 2 0 4.724379882908081 12.136896274362138 44.89765900780558 14 2 7
502 0 2 0 2.7139666480882956 10.634538457904705 46.0685221276997 14 1 7
504 0 1 0 1.9680659510998064 9.999732992447354 45.7220236014393 14 1 7
503 0 1 0 2.6978488429026104 10.53549265705663 47.02457597375772 14 1 7
1493 0 1 0 1.2421577987761285 10.181130326792456 49.530276933864876 14 0 7
1065 0 1 0 2.5757124352894127 11.551869886843225 50.29217076011482 14 0 7
1191 0 1 0 3.089615987424203 7.4143789658605135 49.98838818324331 14 1 7
1190 0 1 0 4.263496498340273 8.300710948569131 50.55585196668758 14 1 7
1492 0 2 0 2.120410266410177 10.026500536736064 49.17839357500109 14 0 7
1189 0 2 0 3.2892221030662583 8.217132052577142 50.54034555598954 14 1 7
1494 0 1 0 2.580794517946841 9.339904312775815 49.71552498733087 14 0 7
708 0 1 0 5.836304198434118 11.146393593983701 49.74037766167516 15 1 7
610 0 2 0 6.0361123351557815 8.450185291252437 51.16159626167389 15 2 7
1233 0 1 0 0.47530625524452924 6.8672633697533 50.04379372072543 16 1 7
706 0 2 0 5.590073880761107 11.951749250720328 50.09071963858533 15 1 7
707 0 1 0 4.668476672682577 11.857072250404444 50.505421141323765 15 1 7
1231 0 2 0 1.2149315824531395 6.600517870260515 49.44238973187249 16 1 7
612 0 1 0 6.3793555805786415 7.524770472676591 51.09185834577123 15 2 7
693 0 1 0 5.419822079323799 7.316303304633081 47.31171478087822 13 2 7
691 0 2 0 5.120330797028642 6.484224549885335 47.02553995462584 13 2 7
552 0 1 0 0.04757253890058166 10.772684233712464 51.541818047594184 14 3 7
416 0 1 0 0.8951597711098507 6.281105728105001 52.46022133347261 14 -1 7
477 0 1 0 3.052972592110155 8.602315729262198 52.47455739858746 15 2 7
1530 0 1 0 0.053109411197489464 7.770550726342265 53.98649762493272 17 2 7
234 0 1 0 5.546421191961203 9.085875086706478 55.27747377728958 14 2 7
415 0 2 0 1.1218293471726795 6.5333745607244165 53.410670325932585 14 -1 7
995 0 1 0 1.4635222870849087 10.190011111101986 53.3656358639444 16 0 7
476 0 1 0 3.7021136430122588 8.77680031262046 53.86251734836105 15 2 7
233 0 1 0 5.293268637884905 10.392127659639518 54.44236679381473 14 2 7
232 0 2 0 5.110634075156031 9.421104302506842 54.456574973176295 14 2 7
475 0 2 0 2.8199473731206055 8.71295100642022 53.44284557112703 15 2 7
417 0 1 0 1.9463864867620835 7.146567621825686 53.34737045031695 14 -1 7
611 0 1 0 5.9134087875365084 8.7226330212339 52.11928773557558 15 2 7
994 0 2 0 0.5239373078678038 10.606056574501993 53.502609954138194 16 0 7
996 0 1 0 0.05897722855667299 9.874085740947223 53.93245835904368 16 0 7
1529 0 1 0 0.017259654823530278 8.44930043080634 55.35351231201807 17 2 7
1048 0 2 0 2.3544538245131963 6.225396275974485 58.1069092218122 15 0 7
1400 0 1 0 4.832878435876909 6.729744559020457 59.41439562485106 16 0 7
1173 0 1 0 1.8087470675775525 8.243933209129429 57.059981275177506 15 2 7
1108 0 2 0 2.967594048204645 11.772207624888738 57.62885930768063 14 1 7
592 0 2 0 3.002261723713278 9.889763726498781 60.182556573861476 14 1 7
58 0 2 0 5.625600781262378 10.399586130910045 58.59310250589019 13 -1 7
1399 0 2 0 5.444069540540737 7.439212169044453 59.53636033474071 16 0 7
1087 0 2 0 1.4367993495392026 12.27270127245312 60.18093205117518 16 -2 7
60 0 1 0 4.735109862583785 10.798448832680364 58.406126057073436 13 -1 7
1172 0 1 0 0.7370693931485974 9.282892968377054 57.28612814586676 15 2 7
59 0 1 0 5.363509573225998 9.654661253145191 59.226093650000365 13 -1 7
1110 0 1 0 2.6864645763469004 10.940934079714907 57.2492710635684 14 1 7
1109 0 1 0 2.4198134580999353 11.873661277826335 58.38046502124515 14 1 7
1401 0 1 0 6.342093708378381 6.997581012191155 59.46022507054119 16 0 7
1171 0 2 0 1.503957665162833 9.110302186120057 56.7054498144628 15 2 7
1512 0 1 0 5.797659781135279 12.229883426573377 59.642460888633124 14 0 7
594 0 1 0 2.7504764282369925 9.07256093809863 60.717003179339216 14 1 7
593 0 1 0 2.203389109210416 10.460003807093956 60.29032948414647 14 1 7
681 0 1 0 6.020216170730891 7.613746834735456 57.60156853650428 15 0 7
829 0 2 0 4.0050605734709555 16.48888265209001 35.1722771535644 15 1 7
1422 0 1 0 0.001659452063837108 17.040316525406134 35.78320484526288 15 0 7
882 0 1 0 5.549159145924019 12.63341428832433 35.153914871923476 13 0 7
1532 0 1 0 4.0465946114789535 14.641193135424226 33.90830686741168 16 1 7
830 0 1 0 4.794063109778221 16.96488213850789 35.46700879835477 15 1 7
1533 0 1 0 4.147252643664931 13.21870299556091 33.24781180673761 16 1 7
1531 0 2 0 4.679104352719952 13.999874410742155 33.55603837426447 16 1 7
831 0 1 0 3.678896713918546 15.96560620113634 35.95086119977322 15 1 7
570 0 1 0 2.604516659544938 17.990497140774494 34.759013732265785 15 0 7
675 0 1 0 6.312391150363425 18.182746151585803 36.87712416910376 15 1 7
1330 0 2 0 4.492308748545471 13.867575505133575 40.09162057395048 14 0 7
667 0 2 0 2.098444482392544 17.71093333622496 41.45425589677564 16 0 7
1406 0 1 0 6.274368369390617 14.433803008233623 41.18070854050471 14 1 7
669 0 1 0 2.7997440396350046 18.258356954504062 41.01863481893312 16 0 7
639 0 1 0 4.601757761388258 15.835719086137905 38.19508509172839 14 0 7
431 0 1 0 0.6872564576719873 18.322895049888633 40.113765478392054 14 0 7
211 0 2 0 1.997644656802585 16.711001113002013 38.23993922993771 14 0 7
1332 0 1 0 4.221743653403026 12.970600326206064 39.969045662459564 14 0 7
1331 0 1 0 3.875605234314369 14.211244356195252 40.73193066087674 14 0 7
213 0 1 0 1.5387409931157832 16.31727591927902 38.95996705500145 14 0 7
700 0 2 0 0.24251782914464706 15.410907657243005 41.17954447598394 14 0 7
524 0 1 0 3.126315046078584 16.216178240587478 42.00923930250915 14 2 7
637 0 2 0 5.1851880929300505 15.159093215899237 37.85288538513114 14 0 7
702 0 1 0 0.8878306926129035 16.177558334396636 41.255126344596555 14 0 7
438 0 1 0 0.41663985160406636 12.375649439996883 39.086494421811764 15 1 7
436 0 2 0 0.4339890802812636 13.300329022035662 38.868648378155676 15 1 7
437 0 1 0 0.26648117134645294 13.692774791050367 39.708848410461044 15 1 7
638 0 1 0 5.117159938766596 14.532745334799854 38.58252676484613 14 0 7
212 0 1 0 1.3791820888408095 16.685251061560827 37.53551481576909 14 0 7
1534 0 2 0 6.2523319733281255 16.21332358503478 44.67405133200779 13 0 7
905 0 1 0 3.4283312635751058 15.25148535647282 45.99937567829096 14 -1 7
1536 0 1 0 5.597453814054499 15.645454711979026 45.07465761636341 13 0 7
345 0 1 0 6.205591235789344 17.536309588995213 43.227187501906215 15 -1 7
343 0 2 0 6.2028208568934495 18.374973942537878 42.63575564694717 15 -1 7
462 0 1 0 0.9607765043316594 14.10764881475963 46.81741614093284 15 0 7
525 0 1 0 3.8698142747406576 15.776915459168276 43.316168236752695 14 2 7
1364 0 1 0 0.8068365907934039 12.597885712377142 44.02890504508464 15 1 7
904 0 2 0 4.338420789448482 14.916249878936693 46.038018787708445 14 -1 7
743 0 1 0 4.428646858959462 12.995320795215074 45.28625153072821 14 2 7
1459 0 2 0 0.7564111619889003 12.701597361326746 45.94394189413544 15 2 7
523 0 2 0 3.4836886077941434 15.438331022408972 42.4629478872368 14 2 7
1363 0 2 0 0.36206392068706506 12.529983778958407 43.11706489154477 15 1 7
668 0 1 0 1.8002119557701552 18.17042617585088 42.27314517991629 16 0 7
678 0 1 0 4.003020300276997 17.88489015638114 48.73669777218391 14 0 7
1542 0 1 0 0.6910519780890375 14.808770577736174 49.56299326772452 15 0 7
1004 0 1 0 2.9319537713243964 15.736679320181427 49.71846150820022 17 1 7
1063 0 2 0 2.9443634989584018 12.364831175457061 50.71285704441407 14 0 7
828 0 1 0 5.359944650309703 13.42958237931634 49.043766795241915 14 1 7
826 0 2 0 5.502918456361749 14.208112000567882 48.429893520026255 14 1 7
676 0 2 0 4.073467048372895 17.493994750690973 47.83589110050432 14 0 7
508 0 2 0 3.0638680528001982 17.572435583254784 50.69947542202083 14 0 7
1064 0 1 0 2.653641931125864 13.123255938020945 50.13817489278943 14 0 7
1005 0 1 0 2.2477320955258806 15.006011236643161 48.53494616157069 17 1 7
906 0 1 0 4.658480032865456 14.849499830971308 46.95776982517953 14 -1 7
677 0 1 0 5.063120076088153 17.624254238434162 47.60985135283952 14 0 7
1003 0 2 0 2.483461054572326 14.8878512709971 49.4747545065605 17 1 7
460 0 2 0 1.132621778692922 15.037185951984135 47.13648692102658 15 0 7
827 0 1 0 6.288303810530333 13.957370220167709 47.899682143693234 14 1 7
461 0 1 0 0.28673640828384617 15.548387558803354 47.02535265970495 15 0 7
501 0 1 0 2.5653241675965 18.248959340740065 46.894486556282764 14 0 7
510 0 1 0 3.602963327805588 17.16575203264535 51.36562024607424 14 0 7
629 0 1 0 4.057337531942538 15.996130684900535 54.03038492074968 14 1 7
1378 0 2 0 4.046598073663841 15.765397634085382 55.75055571188162 16 1 7
1380 0 1 0 3.1554045943389615 15.738815684248896 56.02219542941072 16 1 7
898 0 2 0 6.252267225696857 17.694743135525048 52.190076885554674 14 -1 7
492 0 1 0 0.4425572088968569 16.03606614842042 52.48223597264032 15 1 7
405 0 1 0 1.5472152271521025 17.61867197005215 55.18137504222626 17 0 7
342 0 1 0 2.828767232156191 14.20388298435524 53.26266275357056 14 -1 7
628 0 2 0 4.003248225424991 15.991980796340933 53.00990986708141 14 1 7
1410 0 1 0 0.41958349192501637 13.567297798125205 53.1737790826836 15 -1 7
341 0 1 0 2.8411591675542462 12.82547832927876 52.449173002025965 14 -1 7
490 0 2 0 0.4874486450159807 16.964543302167478 52.335097651916826 15 1 7
630 0 1 0 4.7753714241812215 15.452304297373603 52.769545828670005 14 1 7
899 0 1 0 6.363332090939987 16.698360628151146 52.042556434858 14 -1 7
340 0 2 0 2.531978995946397 13.205209575951704 53.35143835081822 14 -1 7
403 0 2 0 1.4363004435693654 18.349269366494006 54.50559161869605 17 0 7
404 0 1 0 0.9744780884128325 17.921184672293315 53.72308446068509 17 0 7
984 0 1 0 0.9051452539125953 12.603387600896086 55.39837679680142 16 0 7
293 0 1 0 4.2121469921157555 12.456887537542686 54.20949686685279 13 -1 7
854 0 1 0 4.406491500556557 18.27187100648466 53.30881000926683 14 1 7
294 0 1 0 4.973377999966965 12.719152761043894 55.59662221522162 13 -1 7
292 0 2 0 5.061391002836324 12.395997204684473 54.689731077902 13 -1 7
36 0 1 0 1.1277300488686366 15.202053643430002 56.24395397318082 15 3 7
1417 0 2 0 6.416660410462436 14.592324404979198 52.28561992327973 16 0 7
982 0 2 0 0.9178577208502225 13.127445621306544 56.23910185120913 16 0 7
491 0 1 0 1.2736756649921799 17.101531421239947 51.72533362963901 15 1 7
983 0 1 0 1.7063695371565342 12.732679403053876 56.78881703990117 16 0 7
123 0 1 0 0.05294808469970018 17.548624918426327 58.67638055272576 14 1 7
874 0 2 0 1.7808157543873724 17.874266586799514 59.566675839519085 14 0 7
178 0 2 0 6.369565670825568 16.399898595434017 59.01917946385307 14 2 7
1089 0 1 0 0.597023459220022 12.680351644105096 60.446930190724984 16 -2 7
180 0 1 0 5.372597787058394 16.251796914214566 58.867539470044115 14 2 7
152 0 1 0 3.198964681255648 14.645791731352125 60.6036815886955 15 1 7
1167 0 1 0 2.9867736645064733 15.692937834651458 58.22480646486732 15 0 7
595 0 2 0 5.661461534826396 14.144791962400076 57.01362861255122 14 0 7
597 0 1 0 5.580555995594718 13.785087540524815 57.93883809806321 14 0 7
1511 0 1 0 4.912842072597492 13.205058686341161 60.30002960878581 14 0 7
277 0 2 0 4.608040980397894 18.387998921074487 56.28919613070056 15 -1 7
1166 0 1 0 3.151515721498347 16.734743691647633 59.314389833103704 15 0 7
1165 0 2 0 3.605719563518977 15.948426709486409 58.985167929422964 15 0 7
1510 0 2 0 5.6918078023223355 13.20101309269424 59.74911703340707 14 0 7
875 0 1 0 1.9223398578273951 18.067895972248767 60.543734566466284 14 0 7
35 0 1 0 0.6217243126886685 16.410296734921072 57.041676486813365 15 3 7
1379 0 1 0 4.614162108568634 15.084072514417498 56.33090075924108 16 1 7
34 0 2 0 1.3357665999546244 16.11164505992189 56.400738533892486 15 3 7
1088 0 1 0 2.1585118232663465 12.47027877757554 60.78532761112311 16 -2 7
278 0 1 0 4.261025091610444 17.49665146602018 56.30350284593696 15 -1 7
1179 0 1 0 5.511706811524024 16.16623260173008 61.152003025101564 15 1 7
1177 0 2 0 5.094254841073142 16.331484152338117 62.02752093252696 15 1 7
1370 0 1 0 3.581034200274778 17.598693662780523 62.32154364369266 15 1 7
1178 0 1 0 5.81472773964949 16.029978233456834 62.58644232608151 15 1 7
153 0 1 0 3.974037215771012 14.784705870705222 61.8825471826053 15 1 7
1369 0 2 0 2.7023385923513885 18.042567977430885 62.28028289405276 15 1 7
151 0 2 0 3.5156702096144974 14.096033218097503 61.35703840507505 15 1 7
709 0 2 0 3.942512268624466 22.30837060982233 36.29011731160341 14 0 7
1359 0 1 0 1.091090841924548 21.57332836553546 36.65192729429852 15 1 7
711 0 1 0 3.1502461511664865 21.737918918701986 36.27621105381965 14 0 7
1358 0 1 0 1.2885730695654327 20.083583432328748 36.44825507186831 15 1 7
1357 0 2 0 1.463623714096618 20.80715637407462 37.02611545444068 15 1 7
568 0 2 0 2.0713468801970882 18.604917294489663 35.31974783672932 15 0 7
710 0 1 0 4.68189805414636 21.719741085906435 36.162305862293614 14 0 7
1317 0 1 0 0.24132974254887074 24.27433813685888 36.8789277321668 15 2 7
569 0 1 0 2.5440409377319266 18.591369848794898 36.18640185980348 15 0 7
832 0 2 0 6.180183465124472 23.66121731764473 40.51012957990199 14 1 7
1554 0 1 0 0.8402039760822632 23.408376244476827 40.08668584504045 16 0 7
124 0 2 0 6.312161490335582 18.832085908507935 38.46996777332679 14 -1 7
125 0 1 0 5.541898412041128 19.09178733956878 39.05897354862748 14 -1 7
1473 0 1 0 2.5429148426010393 22.059927227223426 39.78038310426525 15 -1 7
97 0 2 0 4.4183671934078435 19.183461115451973 40.3973352389896 14 0 7
1553 0 1 0 0.6412295117837826 23.79805040962011 38.59035681628563 16 0 7
1472 0 1 0 2.276790558480487 20.942467057675632 38.75652959573138 15 -1 7
622 0 2 0 3.643662244119855 24.17320681152071 38.330165739111166 14 1 7
98 0 1 0 5.151722161196317 19.067492229153906 41.04456924469233 14 0 7
99 0 1 0 4.162828421298923 20.120787132338705 40.427820752021574 14 0 7
1552 0 2 0 1.1542209905857654 24.038594316920683 39.41707022374304 16 0 7
1471 0 2 0 2.38193341962566 21.099735060660116 39.70173747319243 15 -1 7
833 0 1 0 5.731461940289507 24.226905827412878 39.82721206807473 14 1 7
623 0 1 0 2.8457514242876627 23.852702284309856 38.852116027945804 14 1 7
624 0 1 0 3.832741291293243 23.448981416921264 37.6253972971843 14 1 7
432 0 1 0 0.05222319103987161 19.52837459823151 39.484535957730074 14 0 7
918 0 1 0 1.8599237917370253 22.00509226100529 44.51352577875107 16 -1 7
859 0 2 0 3.9160280858162393 21.025560262169112 45.80007783201475 15 0 7
499 0 2 0 1.8789611190986006 18.836721198868297 46.480203566578446 14 0 7
917 0 1 0 0.9189060004149691 22.235417086842094 43.18362192530448 16 -1 7
970 0 2 0 1.313548146794376 19.075976759060264 43.7186948900479 16 1 7
1476 0 1 0 5.097581429928044 22.035667630542637 43.15836114226446 14 0 7
971 0 1 0 1.6241443821349866 20.039079480897957 43.662220387132514 16 1 7
627 0 1 0 5.788485008364122 20.046949910221628 45.56639128093565 16 0 7
860 0 1 0 3.989933002683682 21.11024990549264 44.763926236566604 15 0 7
163 0 2 0 1.005043718367132 23.47633688765628 45.586000841562765 14 -2 7
972 0 1 0 1.7170623051757288 18.822057856589172 44.550004491050885 16 1 7
861 0 1 0 3.4176137532072137 20.191782542906953 45.92449902373143 15 0 7
308 0 1 0 5.312222685823393 24.251542524462614 46.08802825160819 16 1 7
165 0 1 0 0.06073561277853151 23.71718692336869 45.682959964783194 14 -2 7
916 0 2 0 1.7309493363122637 21.76637743633182 43.55048734611352 16 -1 7
1474 0 2 0 4.651332496542466 21.1467993376414 43.179476355386925 14 0 7
514 0 2 0 6.27286035644782 23.327152614415645 43.24195043581892 15 0 7
1475 0 1 0 3.7254623575568173 21.264807248810534 42.85400981418724 14 0 7
515 0 1 0 6.147697977963553 23.819440371370302 44.11197361545921 15 0 7
164 0 1 0 1.398130193719156 24.169674470955147 45.061093002140225 14 -2 7
344 0 1 0 6.237968226779799 19.016037654619605 43.34718422786199 15 -1 7
516 0 1 0 6.252969550988826 23.996694545330286 42.51036753568663 15 0 7
802 0 2 0 2.1200334365773 23.820817995296657 48.22095361751387 14 0 7
408 0 1 0 5.996417765524425 18.798981288548237 50.61012093822568 16 3 7
1272 0 1 0 5.555570589380182 23.5983637280597 49.98194990791194 16 1 7
565 0 2 0 4.515423631319524 22.461210789003452 48.269218026481965 15 0 7
219 0 1 0 4.343445560507914 20.689643147661265 50.77390090415353 15 0 7
566 0 1 0 4.486328797422684 21.636168053024573 47.78139835469119 15 0 7
1270 0 2 0 6.383434512492543 24.04412335848497 50.22455166729238 16 1 7
804 0 1 0 1.5678027448002492 23.544419117525447 47.48144326790589 14 0 7
217 0 2 0 3.5460959235434353 20.680504237874743 51.33473227147172 15 0 7
567 0 1 0 3.6276691968144212 22.873934858978576 48.19558971682441 15 0 7
993 0 1 0 0.02785994918456325 20.664968628467847 48.52106939417846 14 0 7
803 0 1 0 1.7402257516632524 23.418852123451217 49.032989315142416 14 0 7
406 0 2 0 5.867067437864807 19.586046123188485 50.018674616820995 16 3 7
500 0 1 0 1.5028978769753139 19.30173924372066 47.28808120036558 14 0 7
731 0 1 0 0.4094339332599962 24.027741108955013 51.13914354494674 16 1 7
509 0 1 0 3.1024377627158155 18.547257549529814 50.96962160895966 14 0 7
991 0 2 0 0.2990608577393302 19.699295786678668 48.46541447782843 14 0 7
959 0 1 0 3.4107269108828886 24.567442115731033 55.935789898747366 14 0 7
173 0 1 0 0.497792823515997 24.275585690772658 55.666357113927596 15 0 7
777 0 1 0 4.936319143387516 22.845802187271143 53.998671827786616 15 -2 7
776 0 1 0 4.353581064239647 23.958486772830188 53.44732278454738 15 -2 7
775 0 2 0 4.037457442799698 23.209624561861556 53.97312572780927 15 -2 7
1054 0 2 0 1.5417450938445536 22.271012485329134 51.7678310011849 16 0 7
853 0 2 0 3.910035349504204 19.079102718816454 53.546792645398774 14 1 7
855 0 1 0 2.957184963173628 18.79029953856998 53.71493373816965 14 1 7
279 0 1 0 4.124804443252049 18.83999040811964 55.6147742821824 15 -1 7
1497 0 1 0 0.5451560578240449 19.523551810249764 55.71921605834721 16 1 7
218 0 1 0 3.8893548521661327 20.294721229058585 52.191714868572504 15 0 7
778 0 2 0 0.09628856380686304 23.51510555367135 53.95127777689438 13 1 7
1055 0 1 0 1.6753744670130897 23.040407014587306 52.31458698998182 16 0 7
780 0 1 0 0.1292101175566634 22.53443776715895 54.10103915333548 13 1 7
135 0 1 0 0.4402704906475395 20.584932240444683 51.77322868091668 16 0 7
1056 0 1 0 2.442449465278117 21.884785809186443 51.722940138849864 16 0 7
1425 0 1 0 2.88274295770415 20.874361184237213 58.08147210790953 16 0 7
911 0 1 0 5.3437872608219905 21.494260487072022 57.69073905547745 15 2 7
1423 0 2 0 2.226093146608164 21.40464564522396 57.59465488964875 16 0 7
912 0 1 0 4.793821389612253 22.79264510276995 57.05304458769518 15 2 7
1495 0 2 0 0.15225444051854234 19.71455675399526 56.59574752299764 16 1 7
246 0 1 0 4.652175531477046 19.70412486492014 59.48358082075497 14 0 7
1424 0 1 0 2.7102181816316335 22.023528986855307 57.04939448034204 16 0 7
958 0 2 0 3.467219969785171 24.213551559931386 56.825249852553284 14 0 7
245 0 1 0 4.688386113987432 19.34109020450788 57.83140119357477 14 0 7
244 0 2 0 4.460532826251429 20.037766835458775 58.558750272118786 14 0 7
366 0 1 0 2.328163667989681 24.11426615214778 60.86496963347519 15 -1 7
1241 0 1 0 2.6893713737422917 22.1323175205387 59.664793634655325 17 1 7
910 0 2 0 5.6499457844761745 22.312245123701594 57.228604192537176 15 2 7
1240 0 2 0 2.5670618832103265 22.150929219004812 60.6343545103073 17 1 7