LAMMPS data file via write_data, version 4 Feb 2025, timestep = 500000, units = metal

1560 atoms
2 atom types

0 25.668 xlo xhi
0 24.7 ylo yhi
0 75 zlo zhi

Masses

1 1.007999999740698
2 15.99899999588435

Atoms # full

85 0 2 0 3.426201759894975 4.789337939332266 12.595027467481083 7 0 4
454 0 2 0 0.9411030808574667 4.093557429738579 12.526211262966282 9 1 4
87 0 1 0 2.7610165258711628 4.515281989643107 11.98403414827836 7 0 4
1547 0 1 0 0.5162733197363255 0.9923802272408062 12.345803748304238 9 1 4
456 0 1 0 0.8488951637913001 3.3973915240550885 11.89979941388724 9 1 4
86 0 1 0 2.9094209799271327 5.378126432751363 13.126122547703478 7 0 4
1548 0 1 0 1.497675155518847 0.5858652143684062 11.252052987046385 9 1 4
1546 0 2 0 0.7974774134008975 1.1848019097923896 11.453212735084756 9 1 4
455 0 1 0 0.4179479040473224 4.925609939057946 12.306684673895964 9 1 4
473 0 1 0 4.965696547237866 3.689216556585471 13.880170553243996 7 2 4
474 0 1 0 6.349257261828433 3.086345932788956 13.400182405490218 7 2 4
472 0 2 0 5.528153129615194 2.887328758851907 13.94001025402437 7 2 4
866 0 1 0 1.677602241688075 4.466859516335568 18.430001805488015 8 0 4
1459 0 2 0 2.2470962425109784 2.1226979837148527 15.469789188340648 8 1 4
1400 0 1 0 0.5109051437041192 5.450817914735827 16.590529032759683 9 0 4
905 0 1 0 0.37959283192425597 2.2582157996522025 18.714186758957588 8 -1 4
1292 0 1 0 5.516799405573247 0.7921526974137819 15.107288879352193 8 2 4
1461 0 1 0 2.02288587675539 2.886950660876865 14.958089730716967 8 1 4
1291 0 2 0 5.042224009305635 0.565721313972764 15.974987515725203 8 2 4
1460 0 1 0 3.265454888022912 2.0831776902641677 15.403759055246038 8 1 4
1146 0 1 0 1.6728424111394615 0.15924073740272818 15.294742154644746 8 0 4
867 0 1 0 1.8651121386152603 5.951237236413225 18.54382451306897 8 0 4
906 0 1 0 1.398459286208878 2.2485713295111025 17.498193410862953 8 -1 4
1399 0 2 0 0.09843865057095158 5.462437761014063 15.726480473981297 9 0 4
904 0 2 0 1.3169415888955331 2.3189446696344795 18.480044594603648 8 -1 4
865 0 2 0 1.2821327275685506 5.3392502297279645 18.122737944887422 8 0 4
1138 0 2 0 4.007845809826285 6.146276572698529 15.52892730803317 9 0 4
1282 0 2 0 2.0881762987106045 3.371840794352497 21.00225815557057 8 1 4
720 0 1 0 5.38810553881912 3.6774238707794993 21.406991970592387 8 1 4
77 0 1 0 2.679734098873987 0.6390523832527725 19.00092875932657 8 1 4
1283 0 1 0 1.2329279922023513 3.569339446081969 20.529364184086678 8 1 4
719 0 1 0 4.17388335356025 3.5718778440026533 20.323896075875652 8 1 4
1356 0 1 0 0.9212159822658734 0.30996753630899226 22.06960283208714 9 1 4
1148 0 1 0 3.0270261883180254 4.777736359424652 22.032173487144863 8 0 4
375 0 1 0 0.4426520207411147 4.840159921751773 23.01507180040356 8 1 4
775 0 2 0 5.7701032349644805 4.099193069774055 23.24933723891404 8 -1 4
249 0 1 0 5.644005590550143 4.931819878655482 19.543010947743873 9 -1 4
718 0 2 0 5.207410024208481 3.5665638041877874 20.435177873648996 8 1 4
1354 0 2 0 1.8719600955829359 0.6448074822015435 22.058075412627765 9 1 4
1284 0 1 0 1.905863020500339 2.5202842846824773 21.395644853563592 8 1 4
1149 0 1 0 4.1157917584833585 5.217913449145616 22.903312093047518 8 0 4
1429 0 2 0 0.14165493173181698 6.140142437307435 21.260109250855173 9 1 4
247 0 2 0 6.112166079945136 5.660548790963333 19.056947844580815 9 -1 4
1355 0 1 0 2.1137956699995755 0.41825367459901075 21.150949358316687 9 1 4
1147 0 2 0 3.275742413750618 5.511670532447267 22.533243346082372 8 0 4
391 0 2 0 3.198311820559315 0.9613128446640303 24.65492681388798 8 1 4
271 0 2 0 5.6318735553708645 3.79896085139215 26.936918179095347 9 1 4
393 0 1 0 2.835537454147314 0.7962021530444738 23.73751965916129 8 1 4
1464 0 1 0 1.0880386854069637 3.481379935975409 24.959195786302075 9 1 4
1463 0 1 0 2.156983602836343 2.370926917114185 25.332525217308504 9 1 4
1462 0 2 0 1.4641704109416958 2.9580705092859705 25.75025113100423 9 1 4
1161 0 1 0 5.909607441608867 1.9938823268001817 25.791787037240034 8 2 4
272 0 1 0 4.87113539723097 4.36316995948061 27.167926811599415 9 1 4
722 0 1 0 0.3629354282383012 2.441385276231774 27.344923628674504 9 1 4
373 0 2 0 0.19893580041470266 4.436106038339229 23.916524173060818 8 1 4
54 0 1 0 2.4846785093892234 3.912096178753651 26.987023146286322 7 0 4
52 0 2 0 2.9742582052013837 4.373746281942376 27.694367311983513 7 0 4
1160 0 1 0 4.848513127743174 1.2982121599391359 24.852930404943994 8 2 4
1159 0 2 0 5.801439197725688 1.6008736950347688 24.882819468588767 8 2 4
777 0 1 0 5.743693601759312 3.3091786168878663 23.766447032458867 8 -1 4
374 0 1 0 0.061510529049650604 5.233941594434314 24.45913137167958 8 1 4
53 0 1 0 2.573233710990988 5.260616423188488 27.791892602612034 7 0 4
392 0 1 0 2.6226547353728944 0.26951452709360835 25.197098805897557 8 1 4
14 0 1 0 5.079149471888575 2.4732141241029457 28.04765677531023 9 0 4
59 0 1 0 2.6916247057425626 2.5967268174875433 32.10077951117075 7 -1 4
21 0 1 0 0.3847867529864859 5.205888166764327 30.727109730303965 8 0 4
15 0 1 0 4.238544753067736 2.634562318975918 29.33840338414735 9 0 4
312 0 1 0 4.2099143964333585 6.037238478606712 31.486324196881412 8 0 4
664 0 2 0 2.025953621983291 3.095804835016921 30.150476199212637 7 2 4
1274 0 1 0 1.7844470419806433 0.16409042519938452 28.766914090934126 9 0 4
19 0 2 0 0.9785081986718889 5.588696973556569 31.41190878859954 8 0 4
1273 0 2 0 1.9430526315531764 0.35502221706625575 29.706794897248866 9 0 4
560 0 1 0 6.301102641672381 3.2280799841215155 29.9631950617387 7 0 4
561 0 1 0 6.360060602663583 4.866911979824968 29.832920291473407 7 0 4
13 0 2 0 4.946910494506361 2.093684943557843 28.946947907707923 9 0 4
665 0 1 0 2.0125638421538756 3.563750096454301 29.27724738490955 7 2 4
666 0 1 0 2.0368082255519924 2.163822326396335 29.75355020467834 7 2 4
1275 0 1 0 1.0496952894339318 0.129175639507454 30.108876374452826 9 0 4
20 0 1 0 1.3325397084428372 4.817840119506111 31.85485686992618 8 0 4
353 0 1 0 5.435888326494549 4.2759630756960245 31.949495415152153 8 1 4
352 0 2 0 4.876691733489297 4.7525200231870866 32.553615565787894 8 1 4
150 0 1 0 0.25287018725348054 2.714529857079755 31.308255333396744 8 1 4
148 0 2 0 0.11379314921641469 2.6750547363100066 32.26329164513444 8 1 4
215 0 1 0 0.17682249972883185 0.7580518800154854 32.19680366559851 8 1 4
962 0 1 0 5.544225923001879 0.5090976611031668 31.933014552659372 8 1 4
99 0 1 0 6.068170592776618 0.9789746141729565 29.945008002642883 8 1 4
961 0 2 0 4.654422167555198 0.4468134938494126 32.4051745405394 8 1 4
354 0 1 0 4.2631346506473635 4.026403791997626 32.785436942491444 8 1 4
556 0 2 0 0.3726682516098519 3.728578380769936 35.280198046877835 8 2 4
558 0 1 0 0.7483870948391387 4.640585907179885 35.223688978249285 8 2 4
557 0 1 0 0.8168470888396882 3.2147532105872867 34.5620087676732 8 2 4
1077 0 1 0 0.02144557129009783 6.168008958350643 33.48055155800465 9 0 4
382 0 2 0 1.1689380370055649 0.22838739449995726 36.50628714254425 8 1 4
956 0 1 0 3.1984199240086983 0.6980159581829065 35.67487868115142 8 1 4
1492 0 2 0 1.9484347448504276 6.061706261797683 34.52302357832186 8 0 4
957 0 1 0 4.517023996742961 0.20245726428371963 36.18344966942668 8 1 4
955 0 2 0 4.008609924263219 0.2896282091744747 35.35378454029404 8 1 4
383 0 1 0 0.9318890554057645 1.023347107143192 36.004651289101524 8 1 4
60 0 1 0 3.809640509296452 1.6799325693921565 32.83919008217954 7 -1 4
1493 0 1 0 2.8897259937933653 6.034539968829566 34.253503810545986 8 0 4
58 0 2 0 3.236363650648682 2.5226445090196847 32.9303115900962 7 -1 4
282 0 1 0 2.756151397191806 10.839204765106649 8.946617915847302 7 0 4
287 0 1 0 6.214884013599941 9.805388563728672 11.409045900976716 7 0 4
429 0 1 0 4.286604316735742 10.429292995615446 13.088886733514991 7 1 4
280 0 2 0 3.0933281264497636 11.227201780054532 9.76889855637998 7 0 4
651 0 1 0 4.195677506161617 6.307998880724284 11.948794194995731 8 1 4
1118 0 1 0 1.5534749787433786 11.230999642972034 11.01398929488069 10 -1 4
281 0 1 0 3.9174836661220462 10.770970192576419 10.150209401092022 7 0 4
1117 0 2 0 1.1866530174810088 11.026544818567324 11.889233422660988 10 -1 4
1119 0 1 0 1.960041099420965 11.024608250307862 12.454788940122373 10 -1 4
649 0 2 0 4.785831680525091 7.103981826873167 11.618490787297272 8 1 4
1265 0 1 0 5.591755272768193 7.475881147806945 13.458566990809375 9 2 4
288 0 1 0 4.929113464540233 8.984834284056687 11.507174212873078 7 0 4
286 0 2 0 5.234290010635121 9.881686478313231 11.28086187822077 7 0 4
427 0 2 0 3.5151300773894314 10.384464314708342 13.703012715609729 7 1 4
650 0 1 0 5.359252827849893 6.766057702209073 10.884293886282624 8 1 4
689 0 1 0 2.7961565006941895 8.399912883158246 13.799278680743933 7 0 4
688 0 2 0 2.2156317740301312 7.674001097353071 13.986622660787651 7 0 4
1139 0 1 0 3.143227994567021 6.5296075883903635 15.284280339736853 9 0 4
419 0 1 0 3.5114045778735004 8.24209885612746 17.76507464295305 8 1 4
1264 0 2 0 5.945347161783834 7.576177825100082 14.350844248141357 9 2 4
361 0 2 0 4.655176144703304 10.29958031933192 17.141064836641398 9 0 4
1519 0 2 0 1.666608442106983 10.712836904051818 17.270588466871764 8 1 4
362 0 1 0 3.86069945025347 10.77536032365408 16.89798121627673 9 0 4
494 0 1 0 6.04941700132247 9.592273882386813 16.04302273443756 8 0 4
1520 0 1 0 1.279586756134797 9.941422321667272 17.80277485602914 8 1 4
418 0 2 0 3.676415551252856 7.465404232849569 18.337500873969468 8 1 4
1266 0 1 0 5.213250495718152 7.143932962063116 14.884219086962828 9 2 4
363 0 1 0 4.625428191954194 10.328142005842675 18.147958409883444 9 0 4
56 0 1 0 6.048469055114917 11.84285783914546 16.596683705953026 7 0 4
50 0 1 0 2.0570290375884093 12.082052069358314 18.55805030061412 7 0 4
1521 0 1 0 0.9351733286619988 10.844899164961586 16.635807928951262 8 1 4
1140 0 1 0 3.992661405443225 6.240484049002081 16.53517898664069 9 0 4
428 0 1 0 3.594843774631306 11.228706111537058 14.118207381214718 7 1 4
690 0 1 0 1.4527903529642852 8.019699480725174 14.407315087912359 7 0 4
1483 0 2 0 4.637187275915125 9.897284358180826 20.01744276746847 9 0 4
420 0 1 0 3.1185718516407026 7.681256672639257 19.158803079157895 8 1 4
1485 0 1 0 5.20757993235616 9.11016181892998 20.105675790177937 9 0 4
1268 0 1 0 1.5641768598921253 7.410273895337371 20.934771011897524 9 1 4
125 0 1 0 0.7219301562529576 10.388347868358467 21.449854896825975 8 0 4
1466 0 1 0 3.0615145886721615 12.14467769340815 20.886145348509963 9 0 4
1267 0 2 0 2.52336279361361 7.540914096944018 20.763910700315872 9 1 4
991 0 2 0 0.275783874344307 8.975292188644662 18.853012480400764 8 1 4
873 0 1 0 5.769105458237203 8.100132515316012 21.73706084209063 8 1 4
124 0 2 0 0.5924814927375304 9.43347331885535 21.775317980745225 8 0 4
681 0 1 0 1.3126122216082117 8.41010110404243 23.26297533223738 8 0 4
1269 0 1 0 2.970204464921199 6.959157976530492 21.37764292216103 9 1 4
871 0 2 0 5.426174702323434 8.255714534533745 22.64297158339852 8 1 4
1484 0 1 0 3.79713839005612 9.499781177573563 20.327433370649654 9 0 4
153 0 1 0 5.943010448999159 11.288758202581283 20.599843792701982 8 0 4
1467 0 1 0 4.022175844694183 11.736218568565294 22.178553584624517 9 0 4
1155 0 1 0 4.324000438290901 9.615804371121671 23.012462248146385 9 1 4
970 0 2 0 0.08904762523148316 12.178939750396498 21.321286983036817 9 0 4
992 0 1 0 0.016735261889472355 9.148912632251482 19.787151412785335 8 1 4
872 0 1 0 6.07746393432904 8.671419310001236 23.12356279447565 8 1 4
248 0 1 0 5.3353661234447785 6.287349627260016 18.8540337461848 9 -1 4
575 0 1 0 3.318163864569322 8.740215131082568 25.86915832117833 8 0 4
574 0 2 0 3.474581297369273 8.199859496961281 26.661731670790683 8 0 4
977 0 1 0 4.995168561264644 11.804040631580602 24.62813428490503 8 1 4
379 0 2 0 0.8414116399973135 11.380808442714972 27.17982151434825 7 0 4
1442 0 1 0 1.6823669512618489 7.453826839125575 27.556514197893307 8 1 4
381 0 1 0 0.6222815771817654 10.52295591186317 26.74237526453921 7 0 4
1443 0 1 0 0.5101749311494482 6.730517811440438 27.143228100878325 8 1 4
984 0 1 0 0.18877961094705425 7.313442447274429 25.036890504982395 9 0 4
223 0 2 0 6.206273974253279 7.229623115021337 26.230314558666073 8 1 4
679 0 2 0 1.4124079759347234 7.720455893969265 23.945296446705555 8 0 4
1441 0 2 0 1.0261761454412777 6.801947521362007 27.993460232352067 8 1 4
1278 0 1 0 1.3063686725110315 12.156726832717144 24.989475387785046 9 0 4
224 0 1 0 5.304304654672318 7.503445485479507 25.959644056236083 8 1 4
576 0 1 0 3.890703874294188 8.910014017802851 27.31720301386735 8 0 4
1276 0 2 0 1.278581874004993 11.430540401214886 24.307933479639765 9 0 4
902 0 1 0 6.077116072374183 10.278744131679492 27.25274211634781 7 1 4
225 0 1 0 6.357716446923945 6.40035622848343 25.854212559638665 8 1 4
1153 0 2 0 4.211547776316288 10.447392740035417 23.53670332039895 9 1 4
680 0 1 0 1.76424065079548 6.903801421609999 23.59711013063987 8 0 4
1154 0 1 0 3.273293924276642 10.651630539083088 23.499064072641147 9 1 4
380 0 1 0 0.4812323372899033 11.244001177145396 28.090565088600144 7 0 4
1277 0 1 0 1.2943570976880967 11.879015357692207 23.46382682065431 9 0 4
1246 0 2 0 1.7207652370386135 8.473309496635045 32.568148270028566 7 0 4
847 0 2 0 0.32028904243922207 8.56055728596698 30.268931173320873 11 0 4
321 0 1 0 3.779775136248778 11.318634197980224 31.990319349578485 8 -1 4
1037 0 1 0 6.012681673611334 12.273077431347467 30.471270258720402 9 0 4
335 0 1 0 5.508445892286572 9.617067512366726 29.255618907257897 9 0 4
478 0 2 0 5.70018401570745 6.505422313947836 29.157503540956967 7 2 4
480 0 1 0 4.865761942841589 6.797584147248908 29.64951108752707 7 2 4
319 0 2 0 3.1555452421907253 11.915409154340983 31.49104993235203 8 -1 4
334 0 2 0 4.718872095612455 9.806378962635868 28.725814530341058 9 0 4
310 0 2 0 3.741300722930154 6.770407993426281 31.0037617413218 8 0 4
69 0 1 0 0.11087373403659267 10.545460311896965 30.38085785139725 8 0 4
990 0 1 0 5.119018637188319 8.793411807386754 31.958134606731424 8 0 4
320 0 1 0 2.3814518743402777 11.371452836978555 31.223575963469067 8 -1 4
336 0 1 0 4.490966487920542 10.743380840280606 28.84257701949268 9 0 4
988 0 2 0 4.492133561897321 9.316754094773433 32.58094501992156 8 0 4
479 0 1 0 5.850814041287128 6.8987284901562 28.30791575657044 7 2 4
67 0 2 0 0.35572862450867804 11.304020197009862 29.81255155931092 8 0 4
989 0 1 0 3.692142388159401 8.728231846342323 32.49654941339058 8 0 4
311 0 1 0 2.804089368403207 6.409588532663314 30.873854113387246 8 0 4
1247 0 1 0 1.341108613894584 8.435830890246441 31.646775415142066 7 0 4
849 0 1 0 0.6809449123298492 8.028932837010865 29.490626692710418 11 0 4
1007 0 1 0 6.100887316598769 11.89799446491288 33.94214904719975 9 0 4
1001 0 1 0 4.998753012446859 7.788988328236024 34.08153692027288 8 0 4
620 0 1 0 0.38640102699264794 9.604652263489212 33.563956849667406 7 0 4
1494 0 1 0 1.978442033928471 6.667581090963238 35.29584334544585 8 0 4
1000 0 2 0 4.976053827238966 6.895966659331794 34.461938419833984 8 0 4
623 0 1 0 0.5519511502905673 11.93936313166931 35.00266257470307 7 2 4
1002 0 1 0 5.27123139994444 6.272515496001994 33.70877062651274 8 0 4
1248 0 1 0 1.69668528476125 7.5544701132618615 32.86599654696394 7 0 4
724 0 2 0 4.171413239055779 14.16480112435539 10.260659305912505 9 1 4
566 0 1 0 5.132188085945535 18.490125139718774 11.833998906613765 8 0 4
1427 0 1 0 1.7459363326509496 14.03681124547143 13.836366903201263 8 0 4
1335 0 1 0 1.5239815533589556 15.681954078960493 10.62327164007193 9 1 4
1334 0 1 0 2.9974073134752843 15.236173715274015 11.073930841075217 9 1 4
726 0 1 0 3.878845805991263 13.254443861799443 10.30302996466544 9 1 4
725 0 1 0 4.985493810290127 14.111793225055736 10.808896566810288 9 1 4
565 0 2 0 6.03472733048057 18.2258047250427 11.577874071356904 8 0 4
567 0 1 0 5.732565335544875 17.38338296967839 11.105315546220286 8 0 4
584 0 1 0 3.1411417148202334 17.86875853332311 13.445434762000025 7 1 4
2 0 1 0 0.5850869628742691 18.114676696883233 11.145139341954733 9 0 4
1428 0 1 0 1.6374921033063883 15.100095180379737 12.775619295334296 8 0 4
1426 0 2 0 1.2193547420156636 14.842587898634314 13.631191287010184 8 0 4
1333 0 2 0 2.18732634175171 15.790537726657124 11.304789308651673 9 1 4
3 0 1 0 0.34420816543870636 18.301793594821984 12.710180072271672 9 0 4
165 0 1 0 4.227988445426485 18.33215216059393 17.687856257168995 7 -1 4
489 0 1 0 0.47601474744095756 14.99856120813514 16.691677803407792 8 1 4
1143 0 1 0 6.330316908962447 16.729479090332717 14.15757458206992 9 0 4
178 0 2 0 3.447899300361166 14.021544858297009 17.06648954846705 8 1 4
26 0 1 0 0.7267696678666159 18.264109639885856 14.96830019480347 8 0 4
1141 0 2 0 5.936600671294555 15.892371363542617 14.386924702214285 9 0 4
1420 0 2 0 6.044991490585577 15.256283069599345 17.405291976909837 8 0 4
180 0 1 0 4.304220437765473 14.53690514227995 17.203067870130955 8 1 4
179 0 1 0 2.7273881518348997 14.658410412189214 16.85615750764509 8 1 4
1205 0 1 0 3.037854550511073 17.11999043628599 15.992509323875165 9 0 4
1142 0 1 0 5.0686661295169255 16.13247062471577 14.758120283444706 9 0 4
164 0 1 0 3.1749730987444424 17.57154964557673 18.511654380749032 7 -1 4
1311 0 1 0 3.4158849283720643 13.185610314701556 15.395799536985999 9 1 4
1204 0 2 0 3.1470942197070566 16.852213234801948 15.003033749572573 9 0 4
163 0 2 0 3.261520646693745 18.061760624281504 17.69871435286616 7 -1 4
488 0 1 0 1.2231104932336292 15.909092476905581 17.633986464469434 8 1 4
25 0 2 0 0.02973995004312713 17.933649588212372 14.36337799239461 8 0 4
1309 0 2 0 3.537100705292879 13.111225281118369 14.38781088227962 9 1 4
487 0 2 0 1.231671143961641 15.593649828171339 16.6982399735323 8 1 4
1206 0 1 0 2.495559454950009 16.197703928658278 14.774972071625434 9 0 4
57 0 1 0 6.259948748107134 13.423950375588097 16.78632817043178 7 0 4
1422 0 1 0 6.3767626833991615 15.829205391854073 16.68494522781333 8 0 4
1310 0 1 0 4.202467902507429 13.789927503177822 14.248342805073987 9 1 4
1213 0 2 0 2.9670248744895633 16.609771117099495 20.3214085189083 8 1 4
1465 0 2 0 3.4926301733385086 12.474581650474189 21.718533556898713 9 0 4
549 0 1 0 0.41368762995443414 17.22803748077088 22.736181820950065 7 0 4
548 0 1 0 1.4658915091677052 16.23008447259029 23.38425434858629 7 0 4
1215 0 1 0 2.1072143192543393 16.222195999125333 20.297940904803525 8 1 4
928 0 2 0 2.8331472006280762 15.014023762740365 23.013494277524668 9 -1 4
971 0 1 0 0.520630189971801 12.55115693661767 20.55073671107398 9 0 4
338 0 1 0 5.036801264865741 14.723370689242593 22.111693473694796 8 -1 4
337 0 2 0 5.769237728996841 14.139958109579217 21.855711816623558 8 -1 4
1214 0 1 0 3.0026698485030128 17.23602370993703 21.079712090486076 8 1 4
930 0 1 0 2.8479766500968062 14.12424881818887 22.522292765292356 9 -1 4
339 0 1 0 5.207228222940085 13.387453546229764 21.492420620269534 8 -1 4
1297 0 2 0 0.10984039867873253 15.378940992990334 20.521111074185036 9 1 4
49 0 2 0 2.281629071865993 12.617085700159901 19.2727043083763 7 0 4
51 0 1 0 2.7934298473927393 13.317257133278492 18.830489669581446 7 0 4
351 0 1 0 6.0299928120735204 18.19636626813544 18.882917928188327 9 0 4
568 0 2 0 4.3517298484473015 15.258881305690254 25.496080162141077 9 1 4
637 0 2 0 1.6759025165561219 13.734213980274669 26.0571601123994 8 1 4
978 0 1 0 5.864598176507724 13.07085156420393 24.50523725902121 8 1 4
638 0 1 0 2.390520553760718 14.354412500630069 25.78369809096293 8 1 4
1067 0 1 0 2.0225644586989078 18.46857577848062 26.32281410573313 7 1 4
569 0 1 0 5.1583189632798625 14.929279522833527 25.012613788332853 9 1 4
639 0 1 0 2.011294073854725 13.07343122182161 26.686117795348913 8 1 4
1261 0 2 0 1.0846979336853766 18.18366073213136 27.85385502802211 7 0 4
929 0 1 0 3.3420966686201345 14.80015617062851 23.80619823623849 9 -1 4
1262 0 1 0 1.0779054636220156 17.198255088562956 27.738021106821897 7 0 4
922 0 2 0 5.089214489720262 17.9778854113613 25.46103258363389 8 1 4
1068 0 1 0 1.5751090499638554 18.231122287337737 24.912573827188485 7 1 4
570 0 1 0 4.448703878210849 16.2142511113562 25.50526453997894 9 1 4
818 0 1 0 0.2501930898724086 14.927495781172489 26.822449464135815 8 -1 4
923 0 1 0 5.271395524396253 18.145872380958085 26.436558165810414 8 1 4
547 0 2 0 0.7374688279032345 16.860446143695064 23.58459508315227 7 0 4
174 0 1 0 4.207798439230867 14.872672351808601 27.203162221888725 8 0 4
976 0 2 0 5.346238028449495 12.54898667182067 25.119778061226835 8 1 4
924 0 1 0 4.264666947813791 18.449266680958324 25.31379399811919 8 1 4
1263 0 1 0 0.04417001959385619 18.283646273294153 28.061274623235366 7 0 4
1091 0 1 0 5.806943538249092 18.28351587993829 29.594245621702267 8 0 4
582 0 1 0 4.345803699237917 16.839995286684623 30.868841231410034 7 -1 4
1516 0 2 0 1.135856312485483 15.954409344787097 31.406526536416994 8 0 4
1440 0 1 0 2.329799313422171 13.25782110681791 32.64150332394303 8 0 4
580 0 2 0 4.060439119870983 15.897724794671442 30.96105064382732 7 -1 4
441 0 1 0 5.8745522034561874 14.53276766706796 29.186634781946832 8 0 4
1518 0 1 0 0.6322692314718845 16.667746637964147 31.83482626075703 8 0 4
173 0 1 0 3.6176046736558374 15.560738374248121 28.457358909893255 8 0 4
1318 0 2 0 4.574060255157971 12.511540761136711 29.279560692983278 9 0 4
1320 0 1 0 4.091587768376159 13.268908384930393 28.8813211282744 9 0 4
581 0 1 0 3.0487825357716645 15.891216361428407 31.020109880232646 7 -1 4
1517 0 1 0 1.3817339514861053 15.321084862501499 32.1478910946603 8 0 4
1319 0 1 0 4.062723279044441 12.38794806747444 30.120736993750686 9 0 4
663 0 1 0 5.0192249137853695 16.053170505367596 32.70732320886589 9 1 4
172 0 2 0 4.105093132549438 14.76129438024756 28.183759969603663 8 0 4
1439 0 1 0 1.537739078328745 13.85459219639495 33.86118367026514 8 0 4
836 0 1 0 4.284074846502523 13.640247412726858 33.88847347943944 8 0 4
837 0 1 0 5.419158010120225 13.74788872626706 34.84783705705681 8 0 4
835 0 2 0 4.799956638017682 13.08667678768774 34.50721726717457 8 0 4
1438 0 2 0 2.2210320363486904 14.094342009668932 33.172547586674725 8 0 4
661 0 2 0 5.641630112987464 15.994310885072597 33.44954878463011 9 1 4
622 0 2 0 0.6956583746087361 12.89119738502281 35.26523966133211 7 2 4
624 0 1 0 0.22356672921610096 12.96163811382619 36.11094787124995 7 2 4
662 0 1 0 5.94933414449957 16.922965497730733 33.65165106201555 9 1 4
1530 0 1 0 5.621139482706693 21.457259190778835 12.647526310823245 9 1 4
1 0 2 0 0.6112642990283038 18.778824906613337 11.847788152893642 9 0 4
1020 0 1 0 3.5259128237359123 21.221179787769778 13.856136572988031 7 0 4
1019 0 1 0 3.933046285746924 19.79970741206305 13.340228022084771 7 0 4
583 0 2 0 3.296567447621072 18.566170953327006 12.793380201089994 7 1 4
782 0 1 0 0.6918212047735701 21.27455677804869 13.426741782572522 8 -1 4
1018 0 2 0 4.3299762250519285 20.769362990884087 13.535208310377286 7 0 4
783 0 1 0 0.11461277087858335 21.00135977816349 12.003775989893043 8 -1 4
781 0 2 0 0.061493154354099744 21.60524595727764 12.757932088030957 8 -1 4
1528 0 2 0 6.4114184565359835 21.99705586369411 12.424324446466434 9 1 4
585 0 1 0 2.5006232952705165 18.72477290083365 12.290584477928313 7 1 4
506 0 1 0 5.705797049853873 19.174750859485986 14.62244420470287 8 0 4
1051 0 2 0 5.422958009197726 22.562919840669593 16.075597295125657 9 0 4
1144 0 2 0 1.2597339081503411 23.98309037715779 15.016987753151566 8 -1 4
1217 0 1 0 1.8226960439820172 22.38499232455911 14.669603547339083 8 0 4
1052 0 1 0 5.704966188889605 22.423913195806634 16.986637348379205 9 0 4
588 0 1 0 1.7594251665936274 19.161930100416303 16.87435726064772 7 1 4
1133 0 1 0 0.9220132598097764 23.746683299066962 18.23046605884277 9 -1 4
586 0 2 0 1.2170868875263046 19.69448371897333 16.29199513417175 7 1 4
1053 0 1 0 4.794650704236047 21.815878489470624 15.810620613687057 9 0 4
1218 0 1 0 1.8068761773094875 20.956412481181147 15.365495521460721 8 0 4
1216 0 2 0 2.0003854608542415 21.443478713133814 14.542722924708821 8 0 4
505 0 2 0 6.319807448199976 18.7157797924436 15.215036117083201 8 0 4
1134 0 1 0 0.6300585057337953 23.630829985297442 16.749253904129542 9 -1 4
587 0 1 0 0.45265298696219874 19.92802851547057 16.88655304998494 7 1 4
1145 0 1 0 0.4542045319570935 24.138092003648314 14.471780829003844 8 -1 4
1132 0 2 0 0.1922949982022096 23.51201738308443 17.62539322947169 9 -1 4
349 0 2 0 6.086826377193023 18.74775112468252 18.088116801815204 9 0 4
1293 0 1 0 4.875038670472115 24.293825766278815 15.873680361691477 8 1 4
76 0 2 0 2.424942113752066 24.41662501403155 19.21218470419998 8 0 4
1504 0 2 0 2.2844242941093333 21.19535179683055 21.772127668746375 10 0 4
453 0 1 0 0.31415946765632746 20.924599279304392 20.908331929587778 8 0 4
102 0 1 0 4.90309758058241 18.603336874092896 21.421368378484825 8 -1 4
101 0 1 0 3.751549602312207 19.556103693154313 22.088130097336276 8 -1 4
1505 0 1 0 3.0114430822113785 21.8205688445245 21.56468396893945 10 0 4
1506 0 1 0 2.4008016118782045 21.326112196676142 22.763520593451425 10 0 4
100 0 2 0 4.304042119791775 18.749897225224494 22.155483389733487 8 -1 4
969 0 1 0 5.354574903977765 23.189122949745308 20.505862877863194 9 0 4
78 0 1 0 3.2440098563741144 23.891696227922573 19.448691145149688 8 0 4
967 0 2 0 4.639336603436317 22.592881258700967 20.263978015333546 9 0 4
968 0 1 0 5.119342570869118 21.79622771602726 19.950327614733457 9 0 4
74 0 1 0 1.987144382222296 23.559141614100298 26.848318801074146 8 0 4
73 0 2 0 1.792136231899369 24.532352391554614 26.679623513665334 8 0 4
1046 0 1 0 6.382345895137148 22.00853216637945 25.408615819396555 8 -1 4
571 0 2 0 3.1093255463523928 21.263585493173878 24.333585884197074 7 0 4
250 0 2 0 5.850725313730342 21.52603499341318 27.370834685572962 6 -1 4
669 0 1 0 2.44545550434072 21.381808393638373 26.419646108792307 9 0 4
1045 0 2 0 6.10395879119214 22.12322759263786 24.461998813820568 8 -1 4
573 0 1 0 3.2449516277797295 20.32612779644592 24.436318329594425 7 0 4
572 0 1 0 4.0446741888837145 21.587814265035746 24.253394192249683 7 0 4
668 0 1 0 2.4190327012444937 20.843876670773213 27.910634845236647 9 0 4
667 0 2 0 1.93317710850914 21.428273176590242 27.257607652132396 9 0 4
75 0 1 0 0.9127372080157091 24.614389453559443 26.336862761180846 8 0 4
38 0 1 0 0.004776359903633676 21.35629613011157 27.170141886747686 7 1 4
1066 0 2 0 2.294886583183194 18.68111258007224 25.417473477745144 7 1 4
1495 0 2 0 3.0072801263265374 19.92382063897502 29.477292525436802 9 1 4
1496 0 1 0 2.5286528231410994 19.117493831206314 29.26008492387997 9 1 4
774 0 1 0 1.3664530159092956 22.379334493639913 31.181728678932075 7 1 4
372 0 1 0 4.634043436672698 23.083340860810992 30.363915545443408 8 0 4
1092 0 1 0 4.934239958191738 19.311012881838444 30.225183353088795 8 0 4
1497 0 1 0 2.482541198582787 20.362625211158978 30.155401821307823 9 1 4
773 0 1 0 2.3580996520243844 21.866535200207956 32.09482270157605 7 1 4
371 0 1 0 4.150161728504453 23.686669901125835 29.078444646770993 8 0 4
370 0 2 0 4.900633116828099 23.116689414618456 29.42641334012701 8 0 4
772 0 2 0 1.7168849142713793 21.5504917779264 31.512261337146395 7 1 4
1090 0 2 0 5.542536252503584 18.637917339012347 30.51304207110177 8 0 4
251 0 1 0 5.4472299653169935 21.921479751559332 28.18365546624293 6 -1 4
707 0 1 0 0.05544981274176308 20.799458687533274 32.05211831690012 8 1 4
413 0 1 0 4.533543892949865 21.744839505039675 33.75735149052198 7 0 4
515 0 1 0 5.815851034852706 20.11480220028233 34.03422513415216 8 0 4
414 0 1 0 3.7064104879953645 23.02623139190827 34.10155291865424 7 0 4
514 0 2 0 5.63185781561662 20.824498083407633 34.626930637091775 8 0 4
412 0 2 0 3.9522449203746657 22.489075657359322 33.364473617992054 7 0 4
516 0 1 0 6.411004856706349 21.46093910081762 34.496333788391205 8 0 4
963 0 1 0 4.565581964788985 24.27297919825213 32.831104167398415 8 0 4
384 0 1 0 0.5403878631955702 24.31777941449318 36.04019782315834 8 0 4
827 0 1 0 10.931835666900431 5.920407676872791 9.348648547341066 8 1 4
1137 0 1 0 10.596674383998039 4.449082955164487 13.285069465217015 9 1 4
1024 0 2 0 11.848665678018941 1.9361633670946845 12.641746859477564 9 1 4
1026 0 1 0 11.983350734688463 2.1644144696592478 13.583630702512995 9 1 4
800 0 1 0 12.459190507570257 5.735631450729918 13.227372752890536 8 -1 4
1135 0 2 0 11.212891172650107 4.634529854900545 12.505871265284766 9 1 4
1025 0 1 0 12.78091052644336 1.8967743975063522 12.38962047812202 9 1 4
828 0 1 0 10.59280780047931 5.320271709801172 10.65540465814716 8 1 4
1549 0 2 0 7.7809569935010385 5.381931114131514 13.564605411493478 8 2 4
1136 0 1 0 11.375850846900393 3.672873997952662 12.217677535797858 9 1 4
792 0 1 0 6.488351709179381 0.4745733130158536 12.278039458691522 9 1 4
826 0 2 0 10.198680774982346 5.6110397813057915 9.818802873051967 8 1 4
411 0 1 0 10.528007796969048 0.39145551924626487 12.816332575584822 8 1 4
654 0 1 0 7.363613665986935 5.603133040426779 11.350198909899676 8 2 4
653 0 1 0 8.157735268795793 5.9925295869878905 10.13467681221636 8 2 4
296 0 1 0 8.229633538265414 2.716566995658626 15.905730077779813 8 1 4
121 0 2 0 7.836687191548768 0.8883362147581106 17.148899575759426 6 1 4
295 0 2 0 8.936529674975752 3.2137756900533883 15.408417578288715 8 1 4
1170 0 1 0 10.988347197502833 3.223963941611593 18.002900885886508 9 -1 4
1169 0 1 0 11.902987023699163 3.6302091471880664 16.848967846069858 9 -1 4
122 0 1 0 8.464552893229929 0.30714247987992116 16.67718334019573 6 1 4
407 0 1 0 11.13230596635507 0.6104968955284069 18.60308544010848 8 3 4
123 0 1 0 6.916010343411476 0.6171928380117564 16.9872280158161 6 1 4
1168 0 2 0 11.220633271578787 3.9814984642662106 17.4129662864197 9 -1 4
297 0 1 0 9.76680016376638 3.1655336529694904 15.920437142513949 8 1 4
771 0 1 0 11.723541293766889 5.792199348951622 18.044845149785548 9 0 4
1551 0 1 0 8.160576516807033 4.640945070654357 14.169077457614387 8 2 4
1550 0 1 0 7.172299090066456 5.926080055679448 14.069332099346514 8 2 4
1559 0 1 0 12.370646816719058 2.2720429539976594 19.55067511892771 9 1 4
1329 0 1 0 9.064194674781923 3.7192817075927618 23.062537191608573 8 0 4
408 0 1 0 9.817972476672852 1.474435449033634 18.97332037251695 8 3 4
1308 0 1 0 8.895046469708545 5.5003596580373255 20.947878066651775 9 0 4