LAMMPS (4 Feb 2025)
OMP_NUM_THREADS environment is not set. Defaulting to 1 thread. (src/comm.cpp:99)
  using 1 OpenMP thread(s) per MPI task
# LAMMPS script for running NVT simulation

units       metal
dimension   3
boundary    p p p
atom_style  full
atom_modify map yes

newton      on

read_data   ../start.lammps-data
Reading data file ...
  orthogonal box = (0 0 0) to (151.69788 145.97135 151.07317)
  16 by 8 by 8 MPI processor grid
  reading atoms ...
  11640 atoms
  reading velocities ...
  11640 velocities
Finding 1-2 1-3 1-4 neighbors ...
  special bond factors lj:    0        0        0       
  special bond factors coul:  0        0        0       
     0 = max # of 1-2 neighbors
     0 = max # of 1-3 neighbors
     0 = max # of 1-4 neighbors
     1 = max # of special neighbors
  special bonds CPU = 6.024 seconds
  read_data CPU = 6.252 seconds

pair_style  symmetrix/mace
pair_coeff  * * ../../../00-common/models/ch2o-dens-inv_swa-1-6-8.json C H O
Loading MACE model from '../../../00-common/models/ch2o-dens-inv_swa-1-6-8.json' ... success
  mapping LAMMPS type 1 (C) to MACE type 1
  mapping LAMMPS type 2 (H) to MACE type 0
  mapping LAMMPS type 3 (O) to MACE type 2

variable t equal step

group graphene type 1
8640 atoms in group graphene
group H2O type 2 3
3000 atoms in group H2O

thermo 1000

######### NVT equilibration for 80 ps #############

dump DUMP1 all atom 100 nvt_equi.lammpstrj
timestep 0.001
fix NVT1 graphene nvt temp 300 300 0.1
fix NVT2 H2O nvt temp 300 300 0.1
run 80000
Neighbor list info ...
  update: every = 1 steps, delay = 0 steps, check = yes
  max neighbors/atom: 2000, page size: 100000
  master list distance cutoff = 8
  ghost atom cutoff = 8
  binsize = 4, bins = 38 37 38
  1 neighbor lists, perpetual/occasional/extra = 1 0 0
  (1) pair symmetrix/mace, perpetual
      attributes: full, newton on
      pair build: full/bin
      stencil: full/bin/3d
      bin: standard
Per MPI rank memory allocation (min/avg/max) = 5.921 | 6.239 | 8.644 Mbytes
   Step          Temp          E_pair         E_mol          TotEng         Press     
         0   78.173347     -1810050.1      0             -1809932.4      3213.9061    
      1000   131.90972     -1810046.4      0             -1809847.9      1371.2314    
      2000   304.37255     -1809881.5      0             -1809423.6      395.75529    
      3000   299.07733     -1809857.7      0             -1809407.8      207.87114    
      4000   302.67354     -1809858.8      0             -1809403.5      235.76385    
      5000   294.67739     -1809872.5      0             -1809429.2      205.75381    
      6000   306.17003     -1809866.3      0             -1809405.7      279.1159     
      7000   301.11746     -1809869.6      0             -1809416.6      284.76304    
      8000   302.40679     -1809863        0             -1809408.1      210.6248     
      9000   303.83928     -1809864.2      0             -1809407.1      349.64957    
     10000   300.56333     -1809862.8      0             -1809410.6      292.16349    
     11000   298.82664     -1809872.2      0             -1809422.6      139.94483    
     12000   302.98303     -1809848.2      0             -1809392.4      104.41407    
     13000   298.57756     -1809871.9      0             -1809422.7      182.69559    
     14000   301.51288     -1809863.9      0             -1809410.3      62.654128    
     15000   299.21358     -1809878.2      0             -1809428        82.819069    
     16000   300.12412     -1809864.6      0             -1809413.1      81.106716    
     17000   302.17041     -1809873.5      0             -1809418.9      235.98263    
     18000   303.36187     -1809859.8      0             -1809403.4      201.81553    
     19000   295.934       -1809871.1      0             -1809425.9      8.1900133    
     20000   298.0574      -1809869.3      0             -1809420.8      120.05141    
     21000   303.69215     -1809870.4      0             -1809413.5      127.25572    
     22000   298.87778     -1809870.6      0             -1809420.9      8.2768148    
     23000   298.96224     -1809871.6      0             -1809421.8      132.49101    
     24000   300.81848     -1809871.1      0             -1809418.5      3.4942254    
     25000   300.58481     -1809873        0             -1809420.7      104.98782    
     26000   297.7432      -1809876.8      0             -1809428.9      156.69681    
     27000   302.61095     -1809871.1      0             -1809415.9      20.776452    
     28000   298.37768     -1809866.2      0             -1809417.3      107.06036    
     29000   300.46713     -1809877.6      0             -1809425.6      105.72593    
     30000   302.07814     -1809874.5      0             -1809420        135.96591    
     31000   301.0067      -1809873.9      0             -1809421        58.487962    
     32000   300.48309     -1809873.4      0             -1809421.3      41.76754     
     33000   298.55781     -1809873        0             -1809423.8      59.328296    
     34000   302.65064     -1809876.5      0             -1809421.2      144.80766    
     35000   297.31394     -1809880.5      0             -1809433.2      91.740907    
     36000   300.52427     -1809865        0             -1809412.8      78.894475    
     37000   300.70932     -1809861.1      0             -1809408.7      94.617247    
     38000   300.15591     -1809877.6      0             -1809426        56.910191    
     39000   296.23653     -1809869.7      0             -1809424        10.791648    
     40000   298.64839     -1809873.7      0             -1809424.4      45.633311    
     41000   295.97709     -1809871.7      0             -1809426.4      106.85084    
     42000   299.6152      -1809874        0             -1809423.2     -0.37375772   
     43000   300.92133     -1809868.5      0             -1809415.8      44.874691    
     44000   296.15077     -1809868.4      0             -1809422.9      29.346723    
     45000   301.58359     -1809875.6      0             -1809421.8      109.14711    
     46000   299.25161     -1809875.8      0             -1809425.6      72.462128    
     47000   297.56617     -1809876.3      0             -1809428.6      63.91133     
     48000   300.34589     -1809869.4      0             -1809417.5      114.66336    
     49000   299.34169     -1809875.1      0             -1809424.7      23.848871    
     50000   300.32504     -1809876.6      0             -1809424.8      91.249037    
     51000   302.88508     -1809871.6      0             -1809416        45.43868     
     52000   298.50052     -1809875.3      0             -1809426.2      41.039815    
     53000   295.73169     -1809876.2      0             -1809431.3      79.442314    
     54000   298.6518      -1809867.3      0             -1809417.9      68.083932    
     55000   301.22536     -1809876.1      0             -1809422.9      81.147122    
     56000   300.88125     -1809873.6      0             -1809420.9      4.205347     
     57000   301.12996     -1809872.5      0             -1809419.5      132.9215     
     58000   296.95574     -1809877        0             -1809430.2      25.103906    
     59000   298.61082     -1809875.4      0             -1809426.2      95.605207    
     60000   296.1981      -1809873.7      0             -1809428.1      55.72241     
     61000   300.94452     -1809880.2      0             -1809427.4      76.147868    
     62000   300.80009     -1809875.1      0             -1809422.6      51.488504    
     63000   302.16709     -1809879.2      0             -1809424.6      103.49513    
     64000   300.88492     -1809879.5      0             -1809426.8      68.89604     
     65000   301.42513     -1809876.6      0             -1809423.1      57.855328    
     66000   300.19423     -1809874.5      0             -1809422.8      100.52017    
     67000   301.27587     -1809867.6      0             -1809414.4      18.988888    
     68000   300.45716     -1809873        0             -1809421        94.675811    
     69000   299.05223     -1809882.1      0             -1809432.2      57.666101    
     70000   301.70149     -1809874.6      0             -1809420.7      82.332798    
     71000   302.19054     -1809867.2      0             -1809412.6      66.344562    
     72000   305.95711     -1809873.1      0             -1809412.8      49.582989    
     73000   299.30474     -1809876.6      0             -1809426.3      91.270282    
     74000   297.91843     -1809876.4      0             -1809428.2      28.833035    
     75000   298.97227     -1809872        0             -1809422.2      88.388807    
     76000   298.36249     -1809868.2      0             -1809419.3      7.911938     
     77000   300.56147     -1809869.9      0             -1809417.8      28.485339    
     78000   299.63785     -1809866.1      0             -1809415.3      124.92226    
     79000   302.49443     -1809870.1      0             -1809415.1      15.882226    
     80000   299.33061     -1809876.7      0             -1809426.3      44.932617    
Loop time of 56733.9 on 1024 procs for 80000 steps with 11640 atoms

Performance: 0.122 ns/day, 196.993 hours/ns, 1.410 timesteps/s, 16.413 katom-step/s
100.0% CPU use with 1024 MPI tasks x 1 OpenMP threads

MPI task timing breakdown:
Section |  min time  |  avg time  |  max time  |%varavg| %total
---------------------------------------------------------------
Pair    | 0.14109    | 5511.1     | 55811      |15370.5 |  9.71
Bond    | 0.0031626  | 0.008421   | 0.048226   |   8.9 |  0.00
Neigh   | 0.017418   | 0.14474    | 5.0561     | 106.2 |  0.00
Comm    | 0.49365    | 2371       | 25680      |10311.2 |  4.18
Output  | 0.55217    | 4.4728     | 9.111      | 118.3 |  0.01
Modify  | 36.16      | 48840      | 56722      |6914.7 | 86.09
Other   |            | 6.908      |            |       |  0.01

Nlocal:        11.3672 ave         302 max           0 min
Histogram: 879 31 92 9 4 3 1 2 2 1
Nghost:        101.486 ave        1571 max           0 min
Histogram: 763 111 108 12 10 7 2 6 2 3
Neighs:              0 ave           0 max           0 min
Histogram: 1024 0 0 0 0 0 0 0 0 0
FullNghs:      1230.48 ave       56269 max           0 min
Histogram: 988 14 7 3 3 4 0 2 2 1

Total # of neighbors = 1260010
Ave neighs/atom = 108.24828
Ave special neighs/atom = 0
Neighbor list builds = 3865
Dangerous builds = 0

write_restart nvt_equi.restart.*
System init for write_restart ...
write_data nvt_equi_final.lammps-data
System init for write_data ...

Total wall time: 15:45:59
