 DBCSR| CPU Multiplication driver                                           BLAS
 DBCSR| Multrec recursion limit                                              512
 DBCSR| Multiplication stack size                                           1000
 DBCSR| Maximum elements for images                                    UNLIMITED
 DBCSR| Multiplicative factor virtual images                                   1
 DBCSR| Use multiplication densification                                       T
 DBCSR| Multiplication size stacks                                             3
 DBCSR| Use memory pool for CPU allocation                                     F
 DBCSR| Number of 3D layers                                               SINGLE
 DBCSR| Use MPI memory allocation                                              F
 DBCSR| Use RMA algorithm                                                      F
 DBCSR| Use Communication thread                                               T
 DBCSR| Communication thread load                                             87
 DBCSR| MPI: My node id                                                        0
 DBCSR| MPI: Number of nodes                                                 128
 DBCSR| OMP: Current number of threads                                         1
 DBCSR| OMP: Max number of threads                                             1
 DBCSR| Split modifier for TAS multiplication algorithm                  1.0E+00


  **** **** ******  **  PROGRAM STARTED AT               2025-10-22 11:37:45.490
 ***** ** ***  *** **   PROGRAM STARTED ON                             nid003466
 **    ****   ******    PROGRAM STARTED BY                            xr223_ukcp
 ***** **    ** ** **   PROGRAM PROCESS ID                                244083
  **** **  *******  **  PROGRAM STARTED IN /mnt/lustre/a2fs-work3/work/e89/e89/x
                                           r223_ukcp/BINDING-ENERGY-DARREN/bindi
                                           ng-energy/1-leg/s+0.00/d+4.50

 CP2K| version string:                                          CP2K version 9.1
 CP2K| source code revision number:                                  git:d8d7100
 CP2K| cp2kflags: omp libint fftw3 libxc elpa parallel mpi3 scalapack plumed2 mk
 CP2K|            l
 CP2K| is freely available from                            https://www.cp2k.org/
 CP2K| Program compiled at                       Thu 08 Jun 2023 08:54:13 AM BST
 CP2K| Program compiled on                                                  ln03
 CP2K| Program compiled for                                              ARCHER2
 CP2K| Data directory path       /work/y07/shared/apps/core/cp2k/cp2k-9.1.0/data
 CP2K| Input file name                                              cp2k_sub.inp

 GLOBAL| Force Environment number                                              1
 GLOBAL| Basis set file name                                      GTH_BASIS_SETS
 GLOBAL| Potential file name                                           POTENTIAL
 GLOBAL| MM Potential file name                                     MM_POTENTIAL
 GLOBAL| Coordinate file name                                           init.pdb
 GLOBAL| Method name                                                        CP2K
 GLOBAL| Project name                                                    MAT-H2O
 GLOBAL| Run type                                                         ENERGY
 GLOBAL| FFT library                                                       FFTW3
 GLOBAL| Diagonalization library                                            ELPA
 GLOBAL| Minimum number of eigenvectors for ELPA usage                        16
 GLOBAL| Orthonormality check for eigenvectors                          DISABLED
 GLOBAL| Matrix multiplication library                                 ScaLAPACK
 GLOBAL| All-to-all communication in single precision                          F
 GLOBAL| FFTs using library dependent lengths                                  F
 GLOBAL| Grid backend                                                       AUTO
 GLOBAL| Global print level                                                  LOW
 GLOBAL| MPI I/O enabled                                                       T
 GLOBAL| Total number of message passing processes                           128
 GLOBAL| Number of threads for this process                                    1
 GLOBAL| This output is from process                                           0
 GLOBAL| Stack size for threads created by OpenMP (OMP_STACKSIZE)        default
 GLOBAL| CPU model name                          AMD EPYC 7742 64-Core Processor
 GLOBAL| CPUID                                                              1002

 MEMORY| system memory details [Kb]
 MEMORY|                        rank 0           min           max       average
 MEMORY| MemTotal            263266912     263266912     263266912     263266912
 MEMORY| MemFree             241221040     241221040     241221040     241221040
 MEMORY| Buffers                181436        181436        181436        181436
 MEMORY| Cached                1354200       1354200       1354200       1354200
 MEMORY| Slab                  3482468       3482468       3482468       3482468
 MEMORY| SReclaimable           996112        996112        996112        996112
 MEMORY| MemLikelyFree       243752788     243752788     243752788     243752788


 *******************************************************************************
 *******************************************************************************
 **                                                                           **
 **     #####                         ##              ##                      **
 **    ##   ##            ##          ##              ##                      **
 **   ##     ##                       ##            ######                    **
 **   ##     ##  ##   ##  ##   #####  ##  ##   ####   ##    #####    #####    **
 **   ##     ##  ##   ##  ##  ##      ## ##   ##      ##   ##   ##  ##   ##   **
 **   ##  ## ##  ##   ##  ##  ##      ####     ###    ##   ######   ######    **
 **    ##  ###   ##   ##  ##  ##      ## ##      ##   ##   ##       ##        **
 **     #######   #####   ##   #####  ##  ##  ####    ##    #####   ##        **
 **           ##                                                    ##        **
 **                                                                           **
 **                                                ... make the atoms dance   **
 **                                                                           **
 **            Copyright (C) by CP2K developers group (2000-2021)             **
 **                      J. Chem. Phys. 152, 194103 (2020)                    **
 **                                                                           **
 *******************************************************************************


 TOTAL NUMBERS AND MAXIMUM NUMBERS

  Total number of            - Atomic kinds:                                   3
                             - Atoms:                                         67
                             - Shell sets:                                    70
                             - Shells:                                       338
                             - Primitive Cartesian functions:                341
                             - Cartesian basis functions:                    938
                             - Spherical basis functions:                    872

  Maximum angular momentum of- Orbital basis functions:                        2
                             - Local part of the GTH pseudopotential:          2
                             - Non-local part of the GTH pseudopotential:      0


 SCF PARAMETERS         Density guess:                                   RESTART
                        --------------------------------------------------------
                        max_scf:                                              20
                        max_scf_history:                                       0
                        max_diis:                                              4
                        --------------------------------------------------------
                        eps_scf:                                        5.00E-07
                        eps_scf_history:                                0.00E+00
                        eps_diis:                                       1.00E-01
                        eps_eigval:                                     1.00E-05
                        --------------------------------------------------------
                        level_shift [a.u.]:                                 0.00
                        added MOs                                        20    0
                        --------------------------------------------------------
                        Mixing method:                            BROYDEN_MIXING
                                                charge density mixing in g-space
                        --------------------------------------------------------
                        Smear method:                                FERMI_DIRAC
                        Electronic temperature [K]:                        300.0
                        Electronic temperature [a.u.]:                  9.50E-04
                        Accuracy threshold:                             1.00E-10
                        --------------------------------------------------------
                        Outer loop SCF in use 
                        No variables optimised in outer loop
                        eps_scf                                         5.00E-07
                        max_scf                                               20
                        No outer loop optimization
                        step_size                                       5.00E-01

 Number of electrons:                                                        264
 Number of occupied orbitals:                                                132
 Number of molecular orbitals:                                               152

 Number of orbital functions:                                                872
 Number of independent orbital functions:                                    872

 Extrapolation method: initial_guess

 *** WARNING in qs_initial_guess.F:309 :: User requested to restart the    ***
 *** wavefunction from the file named: MAT-H2O-RESTART.wfn. This file does ***
 *** not exist. Please check the existence of the file or change properly  ***
 *** the value of the keyword WFN_RESTART_FILE_NAME. Calculation continues ***
 *** using ATOMIC GUESS.                                                   ***



 SCF WAVEFUNCTION OPTIMIZATION

  Step     Update method      Time    Convergence         Total energy    Change
  ------------------------------------------------------------------------------
     1 NoMix/Diag. 0.40E+00    0.6     1.20940861      -379.5641150771 -3.80E+02
     2 Broy./Diag. 0.40E+00    0.7     0.33142048      -368.7551810839  1.08E+01
     3 Broy./Diag. 0.40E+00    0.7     0.02173068      -378.4602681699 -9.71E+00
     4 Broy./Diag. 0.40E+00    0.8     0.00983844      -382.3471321126 -3.89E+00
     5 Broy./Diag. 0.40E+00    0.8     0.00344505      -382.5279630770 -1.81E-01
     6 Broy./Diag. 0.40E+00    0.8     0.00115310      -382.2331082343  2.95E-01
     7 Broy./Diag. 0.40E+00    0.8     0.00103165      -382.1943324649  3.88E-02
     8 Broy./Diag. 0.40E+00    0.8     0.00158601      -382.2027368150 -8.40E-03
     9 Broy./Diag. 0.40E+00    0.8     0.00093125      -382.2016151005  1.12E-03
    10 Broy./Diag. 0.40E+00    0.8     0.00043746      -382.2046632252 -3.05E-03
    11 Broy./Diag. 0.40E+00    0.8     0.00084541      -382.2031872640  1.48E-03
    12 Broy./Diag. 0.40E+00    0.8     0.00015042      -382.2035876588 -4.00E-04
    13 Broy./Diag. 0.40E+00    0.8     0.00008376      -382.2039405189 -3.53E-04
    14 Broy./Diag. 0.40E+00    0.8     0.00006668      -382.2035252634  4.15E-04
    15 Broy./Diag. 0.40E+00    0.8     0.00002483      -382.2034740021  5.13E-05
    16 Broy./Diag. 0.40E+00    0.8     0.00001564      -382.2035589188 -8.49E-05
    17 Broy./Diag. 0.40E+00    0.8     0.00000256      -382.2035826926 -2.38E-05
    18 Broy./Diag. 0.40E+00    0.8     0.00000240      -382.2035589675  2.37E-05
    19 Broy./Diag. 0.40E+00    0.8     0.00000135      -382.2035488162  1.02E-05
    20 Broy./Diag. 0.40E+00    0.8     0.00000111      -382.2035456335  3.18E-06

  Leaving inner SCF loop after reaching    20 steps.


  Electronic density on regular grids:       -264.0000000000        0.0000000000
  Core density on regular grids:              263.9999999998       -0.0000000002
  Total charge density on r-space grids:       -0.0000000002
  Total charge density g-space grids:          -0.0000000002

  Overlap energy of the core charge distribution:               0.00001108883863
  Self energy of the core charge distribution:               -897.78766230971098
  Core Hamiltonian energy:                                    281.09295585012637
  Hartree energy:                                             351.23715304446284
  Exchange-correlation energy:                               -116.57189798953650
  Dispersion energy:                                           -0.17410531769725
  Electronic entropic energy:                                  -0.00000000000000
  Fermi energy:                                                -0.06288824684469

  Total energy:                                              -382.20354563351691

  outer SCF iter =    1 RMS gradient =   0.11E-05 energy =       -382.2035456335
     1 Broy./Diag. 0.40E+00    1.5     0.00000057      -382.2035348534  1.08E-05
     2 Broy./Diag. 0.40E+00    0.8     0.00000061      -382.2035370941 -2.24E-06
     3 Broy./Diag. 0.40E+00    0.8     0.00000019      -382.2035430560 -5.96E-06

  *** SCF run converged in     3 steps ***


  Electronic density on regular grids:       -264.0000000000        0.0000000000
  Core density on regular grids:              263.9999999998       -0.0000000002
  Total charge density on r-space grids:       -0.0000000002
  Total charge density g-space grids:          -0.0000000002

  Overlap energy of the core charge distribution:               0.00001108883863
  Self energy of the core charge distribution:               -897.78766230971098
  Core Hamiltonian energy:                                    281.09295896764473
  Hartree energy:                                             351.23715193704174
  Exchange-correlation energy:                               -116.57189742208382
  Dispersion energy:                                           -0.17410531769725
  Electronic entropic energy:                                  -0.00000000000000
  Fermi energy:                                                -0.06288842370198

  Total energy:                                              -382.20354305596697

  outer SCF iter =    2 RMS gradient =   0.19E-06 energy =       -382.2035430560
  outer SCF loop converged in   2 iterations or   23 steps


 ENERGY| Total FORCE_EVAL ( QS ) energy [a.u.]:             -382.203543055966975

 -------------------------------------------------------------------------------
 -                                                                             -
 -                                DBCSR STATISTICS                             -
 -                                                                             -
 -------------------------------------------------------------------------------
 COUNTER                                    TOTAL       BLAS       SMM       ACC
 flops     9 x    22 x    24               218592     100.0%      0.0%      0.0%
 flops    22 x     9 x    24               218592     100.0%      0.0%      0.0%
 flops     9 x     9 x    24               268272     100.0%      0.0%      0.0%
 flops    22 x    22 x    24               534336     100.0%      0.0%      0.0%
 flops     9 x    22 x    32              1165824     100.0%      0.0%      0.0%
 flops    22 x     9 x    32              1165824     100.0%      0.0%      0.0%
 flops     9 x     9 x    32              1430784     100.0%      0.0%      0.0%
 flops    22 x    22 x    32              2849792     100.0%      0.0%      0.0%
 flops     9 x    13 x    24              8266752     100.0%      0.0%      0.0%
 flops    13 x     9 x    24              8266752     100.0%      0.0%      0.0%
 flops    22 x    13 x    24             10103808     100.0%      0.0%      0.0%
 flops    13 x    22 x    24             10103808     100.0%      0.0%      0.0%
 flops     9 x    13 x    32             44089344     100.0%      0.0%      0.0%
 flops    13 x     9 x    32             44089344     100.0%      0.0%      0.0%
 flops    22 x    13 x    32             53886976     100.0%      0.0%      0.0%
 flops    13 x    22 x    32             53886976     100.0%      0.0%      0.0%
 flops    13 x    13 x    24            388078080     100.0%      0.0%      0.0%
 flops    13 x    13 x    32           2069749760     100.0%      0.0%      0.0%
 flops inhomo. stacks                           0       0.0%      0.0%      0.0%
 flops total                         2.698374E+09     100.0%      0.0%      0.0%
 flops max/rank                     35.267648E+06     100.0%      0.0%      0.0%
 matmuls inhomo. stacks                         0       0.0%      0.0%      0.0%
 matmuls total                             261970     100.0%      0.0%      0.0%
 number of processed stacks                 23575     100.0%      0.0%      0.0%
 average stack size                                    11.1       0.0       0.0
 marketing flops                     4.617052E+09
 -------------------------------------------------------------------------------
 # multiplications                             23
 max memory usage/rank             343.703552E+06
 # max total images/rank                        2
 # max 3D layers                                1
 # MPI messages exchanged                   85376
 MPI messages size (bytes):
  total size                       536.538112E+06
  min size                           0.000000E+00
  max size                          29.952000E+03
  average size                       6.284414E+03
 MPI breakdown and total messages size (bytes):
             size <=      128               58696                        0
       128 < size <=     8192                   0                        0
      8192 < size <=    32768               26680                536538112
     32768 < size <=   131072                   0                        0
    131072 < size <=  4194304                   0                        0
   4194304 < size <= 16777216                   0                        0
  16777216 < size                               0                        0
 -------------------------------------------------------------------------------

 *** WARNING in dbcsr_mm.F:294 :: Using a non-square number of MPI ranks ***
 *** might lead to poor performance. Used ranks: 128 Suggested: 121 256  ***

 -------------------------------------------------------------------------------
 -                                                                             -
 -                      DBCSR MESSAGE PASSING PERFORMANCE                      -
 -                                                                             -
 -------------------------------------------------------------------------------
 ROUTINE             CALLS      AVE VOLUME [Bytes]
 MP_Bcast               19                     12.
 MP_Allreduce          217                     12.
 MP_Alltoall           656                  51873.
 MP_ISend             1472                   3590.
 MP_IRecv             1472                   2683.
 -------------------------------------------------------------------------------

 -------------------------------------------------------------------------------
 -                                                                             -
 -                                GRID STATISTICS                              -
 -                                                                             -
 -------------------------------------------------------------------------------
 LP    KERNEL             BACKEND                              COUNT     PERCENT
 4     collocate ortho    REF                                1152072      47.30%
 4     integrate ortho    REF                                1104069      45.33%
 2     collocate ortho    REF                                  45840       1.88%
 2     integrate ortho    REF                                  43930       1.80%
 3     collocate ortho    REF                                  36672       1.51%
 3     integrate ortho    REF                                  35144       1.44%
 0     collocate general  REF                                   8576       0.35%
 1     collocate ortho    REF                                   2736       0.11%
 1     integrate ortho    REF                                   2622       0.11%
 0     collocate ortho    REF                                   1920       0.08%
 0     integrate ortho    REF                                   1840       0.08%
 -------------------------------------------------------------------------------

 MEMORY| Estimated peak process memory [MiB]                                 329

 -------------------------------------------------------------------------------
 -                                                                             -
 -                         MESSAGE PASSING PERFORMANCE                         -
 -                                                                             -
 -------------------------------------------------------------------------------

 ROUTINE             CALLS      AVE VOLUME [Bytes]
 MP_Group                5
 MP_Bcast              182                3572116.
 MP_Allreduce          631                   1561.
 MP_Sync                51
 MP_Alltoall           367                3387114.
 MP_SendRecv           276                 409600.
 MP_ISendRecv        17907                  24960.
 MP_Wait             20377
 MP_comm_split          23
 MP_ISend             2090                 367034.
 MP_IRecv             2090                 367136.
 MP_Recv                15                  69760.
 -------------------------------------------------------------------------------


 -------------------------------------------------------------------------------
 -                                                                             -
 -                           R E F E R E N C E S                               -
 -                                                                             -
 -------------------------------------------------------------------------------
 
 CP2K version 9.1, the CP2K developers group (2021).
 CP2K is freely available from https://www.cp2k.org/ .

 Kuehne,Thomas D.; Iannuzzi,Marcella; Del Ben,Mauro;
 Rybkin,Vladimir V.; Seewald,Patrick; Stein,Frederick; Laino,Teodoro;
 Khaliullin,Rustam Z.; Schuett,Ole; Schiffmann,Florian; Golze,Dorothea;
 Wilhelm,Jan; Chulkov,Sergey; Bani-Hashemian,Mohammad Hossein;
 Weber,Valery; Borstnik,Urban; Taillefumier,Mathieu;
 Jakobovits,Alice Shoshana; Lazzaro,Alfio; Pabst,Hans; Mueller,Tiziano;
 Schade,Robert; Guidon,Manuel; Andermatt,Samuel; Holmberg,Nico;
 Schenter,Gregory K.; Hehn,Anna; Bussy,Augustin; Belleflamme,Fabian;
 Tabacchi,Gloria; Gloess,Andreas; Lass,Michael; Bethune,Iain;
 Mundy,Christopher J.; Plessl,Christian; Watkins,Matt;
 VandeVondele,Joost; Krack,Matthias; Hutter,Juerg. 
 The Journal of Chemical Physics, 152 (19), (2020). 
 CP2K: An electronic structure and molecular dynamics software package -
 Quickstep: Efficient and accurate electronic structure calculations.
 https://doi.org/10.1063/5.0007045

 Goerigk, Lars; Hansen, Andreas; Bauer, Christoph; Ehrlich, Stephan;
 Najibi, Asim; Grimme, Stefan. , 19 (48), (2017). 
 A look at the density functional theory zoo with the advanced GMTKN55 database
 for general main group thermochemistry, kinetics and noncovalent interactions.
 https://doi.org/10.1039/C7CP04913G

 Schuett, Ole; Messmer, Peter; Hutter, Juerg; VandeVondele, Joost. 
 Electronic Structure Calculations on Graphics Processing Units, John
 Wiley & Sons, Ltd, 173-190 (2016). 
 GPU-Accelerated Sparse Matrix-Matrix Multiplication for
 Linear Scaling Density Functional Theory.
 https://doi.org/10.1002/9781118670712.ch8

 Borstnik, U; VandeVondele, J; Weber, V; Hutter, J. 
 PARALLEL COMPUTING, 40 (5-6), 47-58 (2014). 
 Sparse matrix multiplication: The distributed block-compressed sparse
 row library.
 https://doi.org/10.1016/j.parco.2014.03.012

 Hutter, J; Iannuzzi, M; Schiffmann, F; VandeVondele, J. 
 WIREs Comput Mol Sci., 4 (1), 15-25 (2014). 
 CP2K: atomistic simulations of condensed matter systems.
 https://doi.org/10.1002/wcms.1159

 Marek, A; Blum, V; Johanni, R; Havu, V; Lang, B; Auckenthaler, T;
 Heinecke, A; Bungartz, H; Lederer, H. 
 Journal of Physics: Condensed Matter, 26 (21), (2014). 
 The ELPA library: scalable parallel eigenvalue solutions for
 electronic structure
 theory and computational science.
 https://doi.org/10.1088/0953-8984/26/21/213201

 Grimme, S; Ehrlich, S; Goerigk, L. 
 JOURNAL OF COMPUTATIONAL CHEMISTRY, 32, 1456 (2011). 
 Effect of the damping function in dispersion corrected density functional theory.
 https://doi.org/10.1002/jcc.21759

 Grimme, S; Antony, J; Ehrlich, S; Krieg, H. 
 JOURNAL OF CHEMICAL PHYSICS, 132 (15), 154104 (2010). 
 A consistent and accurate ab initio parametrization of density
 functional dispersion correction (DFT-D) for the 94 elements H-Pu.
 https://doi.org/10.1063/1.3382344

 VandeVondele, J; Hutter, J. 
 JOURNAL OF CHEMICAL PHYSICS, 127 (11), 114105 (2007). 
 Gaussian basis sets for accurate calculations on molecular systems in
 gas and condensed phases.
 https://doi.org/10.1063/1.2770708

 Krack, M. 
 THEORETICAL CHEMISTRY ACCOUNTS, 114 (1-3), 145-152 (2005). 
 Pseudopotentials for H to Kr optimized for gradient-corrected
 exchange-correlation functionals.
 https://doi.org/10.1007/s00214-005-0655-y

 VandeVondele, J; Krack, M; Mohamed, F; Parrinello, M; Chassaing, T;
 Hutter, J. COMPUTER PHYSICS COMMUNICATIONS, 167 (2), 103-128 (2005). 
 QUICKSTEP: Fast and accurate density functional calculations using a
 mixed Gaussian and plane waves approach.
 https://doi.org/10.1016/j.cpc.2004.12.014

 Frigo, M; Johnson, SG. 
 PROCEEDINGS OF THE IEEE, 93 (2), 216-231 (2005). 
 The design and implementation of FFTW3.
 https://doi.org/10.1109/JPROC.2004.840301

 Hartwigsen, C; Goedecker, S; Hutter, J. 
 PHYSICAL REVIEW B, 58 (7), 3641-3662 (1998). 
 Relativistic separable dual-space Gaussian pseudopotentials from H to Rn.
 https://doi.org/10.1103/PhysRevB.58.3641

 Zhang, YK; Yang, WT. 
 PHYSICAL REVIEW LETTERS, 80 (4), 890-890 (1998). 
 Comment on Generalized gradient approximation made simple.
 https://doi.org/10.1103/PhysRevLett.80.890

 Lippert, G; Hutter, J; Parrinello, M. 
 MOLECULAR PHYSICS, 92 (3), 477-487 (1997). 
 A hybrid Gaussian and plane wave density functional scheme.
 https://doi.org/10.1080/002689797170220

 Perdew, JP; Burke, K; Ernzerhof, M. 
 PHYSICAL REVIEW LETTERS, 77 (18), 3865-3868 (1996). 
 Generalized gradient approximation made simple.
 https://doi.org/10.1103/PhysRevLett.77.3865

 Goedecker, S; Teter, M; Hutter, J. 
 PHYSICAL REVIEW B, 54 (3), 1703-1710 (1996). 
 Separable dual-space Gaussian pseudopotentials.
 https://doi.org/10.1103/PhysRevB.54.1703


 -------------------------------------------------------------------------------
 -                                                                             -
 -                                T I M I N G                                  -
 -                                                                             -
 -------------------------------------------------------------------------------
 SUBROUTINE                       CALLS  ASD         SELF TIME        TOTAL TIME
                                MAXIMUM       AVERAGE  MAXIMUM  AVERAGE  MAXIMUM
 CP2K                                 1  1.0    0.114    0.127   19.756   19.759
 qs_energies                          1  2.0    0.005    0.009   19.090   19.099
 scf_env_do_scf                       1  3.0    0.002    0.005   18.209   18.215
 scf_env_do_scf_inner_loop           23  4.0    0.009    0.011   18.206   18.213
 qs_ks_update_qs_env                 23  5.0    0.001    0.001    7.912    7.918
 rebuild_ks_matrix                   23  6.0    0.003    0.004    7.908    7.910
 qs_ks_build_kohn_sham_matrix        23  7.0    0.012    0.018    7.905    7.909
 rs_pw_transfer                     236  9.5    0.005    0.006    5.579    5.802
 qs_rho_update_rho                   24  5.0    0.000    0.002    5.684    5.688
 calculate_rho_elec                  24  6.0    0.021    0.023    5.683    5.688
 density_rs2pw                       24  7.0    0.004    0.005    4.257    4.497
 sum_up_and_integrate                23  8.0    0.025    0.031    4.137    4.141
 integrate_v_rspace                  23  9.0    0.001    0.004    4.112    4.124
 pw_transfer                        350  9.0    0.063    0.071    3.725    3.895
 fft_wrap_pw1pw2                    304 10.0    0.003    0.004    3.573    3.752
 potential_pw2rs                     23 10.0    0.003    0.003    3.731    3.743
 fft_wrap_pw1pw2_530                116 10.2    0.312    0.366    3.276    3.450
 fft3d_ps                           304 12.0    1.498    1.649    2.750    2.920
 qs_vxc_create                       23  8.0    0.003    0.005    2.596    2.683
 xc_vxc_pw_create                    23  9.0    0.067    0.079    2.593    2.680
 gspace_mixing                       21  5.0    0.020    0.023    2.468    2.470
 qs_scf_new_mos                      23  5.0    0.003    0.005    2.416    2.423
 eigensolver                         23  6.0    0.003    0.005    2.244    2.246
 rs_pw_transfer_RS2PW_530            25  8.9    1.149    1.330    1.868    2.080
 mp_waitany                        2090 11.4    1.388    2.037    1.388    2.037
 cp_fm_diag_elpa                     23  7.0    0.000    0.000    1.997    2.007
 xc_rho_set_and_dset_create          23 10.0    0.041    0.061    1.807    1.990
 cp_fm_redistribute_end              23  8.0    1.722    1.972    1.725    1.972
 cp_fm_diag_elpa_base                23  8.0    0.241    1.931    0.244    1.953
 rs_pw_transfer_PW2RS_530            23 12.0    1.212    1.263    1.879    1.931
 broyden_mixing                      21  6.0    1.811    1.851    1.842    1.859
 pw_nn_compose_r                    138 10.5    0.738    0.789    1.075    1.606
 grid_collocate_task_list            24  7.0    1.342    1.438    1.342    1.438
 xc_functional_eval                  23 11.0    0.000    0.001    1.128    1.308
 pbe_lda_eval                        23 12.0    1.127    1.308    1.127    1.308
 mp_alltoall_z22v                   304 14.0    0.937    1.262    0.937    1.262
 mp_sendrecv_dm2                    276 11.5    0.337    0.933    0.337    0.933
 mp_waitall_1                     20863 11.5    0.714    0.808    0.714    0.808
 yz_to_x                            144 12.5    0.115    0.161    0.562    0.781
 x_to_yz                            160 13.5    0.189    0.223    0.680    0.743
 mp_sum_d                           607  3.6    0.314    0.599    0.314    0.599
 init_scf_run                         1  3.0    0.002    0.003    0.576    0.580
 rs_pw_transfer_PW2RS_180            23 12.0    0.216    0.234    0.450    0.566
 pw_poisson_solve                    23  8.0    0.158    0.167    0.402    0.405
 scf_env_initial_rho_setup            1  4.0    0.003    0.004    0.398    0.400
 -------------------------------------------------------------------------------

 The number of warnings for this run is : 2
 
 -------------------------------------------------------------------------------
  **** **** ******  **  PROGRAM ENDED AT                 2025-10-22 11:38:10.030
 ***** ** ***  *** **   PROGRAM RAN ON                                 nid003466
 **    ****   ******    PROGRAM RAN BY                                xr223_ukcp
 ***** **    ** ** **   PROGRAM PROCESS ID                                244083
  **** **  *******  **  PROGRAM STOPPED IN /mnt/lustre/a2fs-work3/work/e89/e89/x
                                           r223_ukcp/BINDING-ENERGY-DARREN/bindi
                                           ng-energy/1-leg/s+0.00/d+4.50
 DBCSR| CPU Multiplication driver                                           BLAS
 DBCSR| Multrec recursion limit                                              512
 DBCSR| Multiplication stack size                                           1000
 DBCSR| Maximum elements for images                                    UNLIMITED
 DBCSR| Multiplicative factor virtual images                                   1
 DBCSR| Use multiplication densification                                       T
 DBCSR| Multiplication size stacks                                             3
 DBCSR| Use memory pool for CPU allocation                                     F
 DBCSR| Number of 3D layers                                               SINGLE
 DBCSR| Use MPI memory allocation                                              F
 DBCSR| Use RMA algorithm                                                      F
 DBCSR| Use Communication thread                                               T
 DBCSR| Communication thread load                                             87
 DBCSR| MPI: My node id                                                        0
 DBCSR| MPI: Number of nodes                                                 128
 DBCSR| OMP: Current number of threads                                         1
 DBCSR| OMP: Max number of threads                                             1
 DBCSR| Split modifier for TAS multiplication algorithm                  1.0E+00


  **** **** ******  **  PROGRAM STARTED AT               2025-10-22 11:38:33.431
 ***** ** ***  *** **   PROGRAM STARTED ON                             nid001143
 **    ****   ******    PROGRAM STARTED BY                            xr223_ukcp
 ***** **    ** ** **   PROGRAM PROCESS ID                                141108
  **** **  *******  **  PROGRAM STARTED IN /mnt/lustre/a2fs-work3/work/e89/e89/x
                                           r223_ukcp/BINDING-ENERGY-DARREN/bindi
                                           ng-energy/1-leg/s+0.00/d+4.50

 CP2K| version string:                                          CP2K version 9.1
 CP2K| source code revision number:                                  git:d8d7100
 CP2K| cp2kflags: omp libint fftw3 libxc elpa parallel mpi3 scalapack plumed2 mk
 CP2K|            l
 CP2K| is freely available from                            https://www.cp2k.org/
 CP2K| Program compiled at                       Thu 08 Jun 2023 08:54:13 AM BST
 CP2K| Program compiled on                                                  ln03
 CP2K| Program compiled for                                              ARCHER2
 CP2K| Data directory path       /work/y07/shared/apps/core/cp2k/cp2k-9.1.0/data
 CP2K| Input file name                                              cp2k_sub.inp

 GLOBAL| Force Environment number                                              1
 GLOBAL| Basis set file name                                      GTH_BASIS_SETS
 GLOBAL| Potential file name                                           POTENTIAL
 GLOBAL| MM Potential file name                                     MM_POTENTIAL
 GLOBAL| Coordinate file name                                           init.pdb
 GLOBAL| Method name                                                        CP2K
 GLOBAL| Project name                                                    MAT-H2O
 GLOBAL| Run type                                                         ENERGY
 GLOBAL| FFT library                                                       FFTW3
 GLOBAL| Diagonalization library                                            ELPA
 GLOBAL| Minimum number of eigenvectors for ELPA usage                        16
 GLOBAL| Orthonormality check for eigenvectors                          DISABLED
 GLOBAL| Matrix multiplication library                                 ScaLAPACK
 GLOBAL| All-to-all communication in single precision                          F
 GLOBAL| FFTs using library dependent lengths                                  F
 GLOBAL| Grid backend                                                       AUTO
 GLOBAL| Global print level                                                  LOW
 GLOBAL| MPI I/O enabled                                                       T
 GLOBAL| Total number of message passing processes                           128
 GLOBAL| Number of threads for this process                                    1
 GLOBAL| This output is from process                                           0
 GLOBAL| Stack size for threads created by OpenMP (OMP_STACKSIZE)        default
 GLOBAL| CPU model name                          AMD EPYC 7742 64-Core Processor
 GLOBAL| CPUID                                                              1002

 MEMORY| system memory details [Kb]
 MEMORY|                        rank 0           min           max       average
 MEMORY| MemTotal            263266864     263266864     263266864     263266864
 MEMORY| MemFree             241308032     241308032     241308032     241308032
 MEMORY| Buffers                181924        181924        181924        181924
 MEMORY| Cached                1350776       1350776       1350776       1350776
 MEMORY| Slab                  3442412       3442412       3442412       3442412
 MEMORY| SReclaimable           984880        984880        984880        984880
 MEMORY| MemLikelyFree       243825612     243825612     243825612     243825612


 *******************************************************************************
 *******************************************************************************
 **                                                                           **
 **     #####                         ##              ##                      **
 **    ##   ##            ##          ##              ##                      **
 **   ##     ##                       ##            ######                    **
 **   ##     ##  ##   ##  ##   #####  ##  ##   ####   ##    #####    #####    **
 **   ##     ##  ##   ##  ##  ##      ## ##   ##      ##   ##   ##  ##   ##   **
 **   ##  ## ##  ##   ##  ##  ##      ####     ###    ##   ######   ######    **
 **    ##  ###   ##   ##  ##  ##      ## ##      ##   ##   ##       ##        **
 **     #######   #####   ##   #####  ##  ##  ####    ##    #####   ##        **
 **           ##                                                    ##        **
 **                                                                           **
 **                                                ... make the atoms dance   **
 **                                                                           **
 **            Copyright (C) by CP2K developers group (2000-2021)             **
 **                      J. Chem. Phys. 152, 194103 (2020)                    **
 **                                                                           **
 *******************************************************************************


 TOTAL NUMBERS AND MAXIMUM NUMBERS

  Total number of            - Atomic kinds:                                   3
                             - Atoms:                                         67
                             - Shell sets:                                    70
                             - Shells:                                       338
                             - Primitive Cartesian functions:                341
                             - Cartesian basis functions:                    938
                             - Spherical basis functions:                    872

  Maximum angular momentum of- Orbital basis functions:                        2
                             - Local part of the GTH pseudopotential:          2
                             - Non-local part of the GTH pseudopotential:      0


 SCF PARAMETERS         Density guess:                                   RESTART
                        --------------------------------------------------------
                        max_scf:                                              20
                        max_scf_history:                                       0
                        max_diis:                                              4
                        --------------------------------------------------------
                        eps_scf:                                        5.00E-07
                        eps_scf_history:                                0.00E+00
                        eps_diis:                                       1.00E-01
                        eps_eigval:                                     1.00E-05
                        --------------------------------------------------------
                        level_shift [a.u.]:                                 0.00
                        added MOs                                        20    0
                        --------------------------------------------------------
                        Mixing method:                            BROYDEN_MIXING
                                                charge density mixing in g-space
                        --------------------------------------------------------
                        Smear method:                                FERMI_DIRAC
                        Electronic temperature [K]:                        300.0
                        Electronic temperature [a.u.]:                  9.50E-04
                        Accuracy threshold:                             1.00E-10
                        --------------------------------------------------------
                        Outer loop SCF in use 
                        No variables optimised in outer loop
                        eps_scf                                         5.00E-07
                        max_scf                                               20
                        No outer loop optimization
                        step_size                                       5.00E-01

 Number of electrons:                                                        264
 Number of occupied orbitals:                                                132
 Number of molecular orbitals:                                               152

 Number of orbital functions:                                                872
 Number of independent orbital functions:                                    872

 Extrapolation method: initial_guess


 SCF WAVEFUNCTION OPTIMIZATION

  Step     Update method      Time    Convergence         Total energy    Change
  ------------------------------------------------------------------------------
     1 NoMix/Diag. 0.40E+00    0.5     0.00000088      -382.2035348534 -3.82E+02
     2 Broy./Diag. 0.40E+00    0.7     0.00000042      -382.2035316779  3.18E-06

  *** SCF run converged in     2 steps ***


  Electronic density on regular grids:       -264.0000000000        0.0000000000
  Core density on regular grids:              263.9999999998       -0.0000000002
  Total charge density on r-space grids:       -0.0000000002
  Total charge density g-space grids:          -0.0000000002

  Overlap energy of the core charge distribution:               0.00001108883863
  Self energy of the core charge distribution:               -897.78766230971098
  Core Hamiltonian energy:                                    281.09296543926831
  Hartree energy:                                             351.23715457466272
  Exchange-correlation energy:                               -116.57189515324492
  Dispersion energy:                                           -0.17410531769725
  Electronic entropic energy:                                  -0.00000000000000
  Fermi energy:                                                -0.06288870850324

  Total energy:                                              -382.20353167788346

  outer SCF iter =    1 RMS gradient =   0.42E-06 energy =       -382.2035316779
  outer SCF loop converged in   1 iterations or    2 steps


 ENERGY| Total FORCE_EVAL ( QS ) energy [a.u.]:             -382.203531677883461

 -------------------------------------------------------------------------------
 -                                                                             -
 -                                DBCSR STATISTICS                             -
 -                                                                             -
 -------------------------------------------------------------------------------
 COUNTER                                    TOTAL       BLAS       SMM       ACC
 flops     9 x    24 x     9                15552     100.0%      0.0%      0.0%
 flops     9 x    24 x    22                19008     100.0%      0.0%      0.0%
 flops    22 x    24 x     9                19008     100.0%      0.0%      0.0%
 flops    22 x    24 x    22                23232     100.0%      0.0%      0.0%
 flops     9 x    22 x    24                28512     100.0%      0.0%      0.0%
 flops    22 x     9 x    24                28512     100.0%      0.0%      0.0%
 flops     9 x     9 x    24                34992     100.0%      0.0%      0.0%
 flops    22 x    22 x    24                69696     100.0%      0.0%      0.0%
 flops     9 x    32 x     9                82944     100.0%      0.0%      0.0%
 flops    22 x    32 x     9               101376     100.0%      0.0%      0.0%
 flops     9 x    32 x    22               101376     100.0%      0.0%      0.0%
 flops    22 x    32 x    22               123904     100.0%      0.0%      0.0%
 flops     9 x    22 x    32               152064     100.0%      0.0%      0.0%
 flops    22 x     9 x    32               152064     100.0%      0.0%      0.0%
 flops     9 x     9 x    32               186624     100.0%      0.0%      0.0%
 flops    22 x    22 x    32               371712     100.0%      0.0%      0.0%
 flops     9 x    24 x    13               718848     100.0%      0.0%      0.0%
 flops    13 x    24 x     9               718848     100.0%      0.0%      0.0%
 flops    13 x    24 x    22               878592     100.0%      0.0%      0.0%
 flops    22 x    24 x    13               878592     100.0%      0.0%      0.0%
 flops     9 x    13 x    24              1078272     100.0%      0.0%      0.0%
 flops    13 x     9 x    24              1078272     100.0%      0.0%      0.0%
 flops    22 x    13 x    24              1317888     100.0%      0.0%      0.0%
 flops    13 x    22 x    24              1317888     100.0%      0.0%      0.0%
 flops    13 x    32 x     9              3833856     100.0%      0.0%      0.0%
 flops     9 x    32 x    13              3833856     100.0%      0.0%      0.0%
 flops    22 x    32 x    13              4685824     100.0%      0.0%      0.0%
 flops    13 x    32 x    22              4685824     100.0%      0.0%      0.0%
 flops     9 x    13 x    32              5750784     100.0%      0.0%      0.0%
 flops    13 x     9 x    32              5750784     100.0%      0.0%      0.0%
 flops    22 x    13 x    32              7028736     100.0%      0.0%      0.0%
 flops    13 x    22 x    32              7028736     100.0%      0.0%      0.0%
 flops    13 x    24 x    13             33226752     100.0%      0.0%      0.0%
 flops    13 x    13 x    24             50618880     100.0%      0.0%      0.0%
 flops    13 x    32 x    13            177209344     100.0%      0.0%      0.0%
 flops    13 x    13 x    32            269967360     100.0%      0.0%      0.0%
 flops inhomo. stacks                           0       0.0%      0.0%      0.0%
 flops total                       583.118512E+06     100.0%      0.0%      0.0%
 flops max/rank                     11.129664E+06     100.0%      0.0%      0.0%
 matmuls inhomo. stacks                         0       0.0%      0.0%      0.0%
 matmuls total                              56615     100.0%      0.0%      0.0%
 number of processed stacks                  4120     100.0%      0.0%      0.0%
 average stack size                                    13.7       0.0       0.0
 marketing flops                   833.380864E+06
 -------------------------------------------------------------------------------
 # multiplications                              4
 max memory usage/rank             305.647616E+06
 # max total images/rank                        2
 # max 3D layers                                1
 # MPI messages exchanged                   14848
 MPI messages size (bytes):
  total size                       168.651776E+06
  min size                           0.000000E+00
  max size                          60.840000E+03
  average size                      11.358552E+03
 MPI breakdown and total messages size (bytes):
             size <=      128                8888                        0
       128 < size <=     8192                   0                        0
      8192 < size <=    32768                4040                 77405696
     32768 < size <=   131072                1920                 91246080
    131072 < size <=  4194304                   0                        0
   4194304 < size <= 16777216                   0                        0
  16777216 < size                               0                        0
 -------------------------------------------------------------------------------

 *** WARNING in dbcsr_mm.F:294 :: Using a non-square number of MPI ranks ***
 *** might lead to poor performance. Used ranks: 128 Suggested: 121 256  ***

 -------------------------------------------------------------------------------
 -                                                                             -
 -                      DBCSR MESSAGE PASSING PERFORMANCE                      -
 -                                                                             -
 -------------------------------------------------------------------------------
 ROUTINE             CALLS      AVE VOLUME [Bytes]
 MP_Bcast               37                     12.
 MP_Allreduce          113                     22.
 MP_Alltoall           105                  50711.
 MP_ISend              256                   6473.
 MP_IRecv              256                   5801.
 -------------------------------------------------------------------------------

 -------------------------------------------------------------------------------
 -                                                                             -
 -                                GRID STATISTICS                              -
 -                                                                             -
 -------------------------------------------------------------------------------
 LP    KERNEL             BACKEND                              COUNT     PERCENT
 4     collocate ortho    REF                                 144009      53.99%
 4     integrate ortho    REF                                  96006      35.99%
 0     collocate general  REF                                   8576       3.21%
 2     collocate ortho    REF                                   5730       2.15%
 3     collocate ortho    REF                                   4584       1.72%
 2     integrate ortho    REF                                   3820       1.43%
 3     integrate ortho    REF                                   3056       1.15%
 1     collocate ortho    REF                                    342       0.13%
 0     collocate ortho    REF                                    240       0.09%
 1     integrate ortho    REF                                    228       0.09%
 0     integrate ortho    REF                                    160       0.06%
 -------------------------------------------------------------------------------

 MEMORY| Estimated peak process memory [MiB]                                 295

 -------------------------------------------------------------------------------
 -                                                                             -
 -                         MESSAGE PASSING PERFORMANCE                         -
 -                                                                             -
 -------------------------------------------------------------------------------

 ROUTINE             CALLS      AVE VOLUME [Bytes]
 MP_Group                5
 MP_Bcast              282                2309090.
 MP_Allreduce          348                   2796.
 MP_Sync                11
 MP_Alltoall            53                2438076.
 MP_SendRecv            24                 409600.
 MP_ISendRecv         1905                  24960.
 MP_Wait              2191
 MP_comm_split           3
 MP_ISend              242                 381571.
 MP_IRecv              242                 382454.
 MP_Recv                15                  69760.
 -------------------------------------------------------------------------------


 -------------------------------------------------------------------------------
 -                                                                             -
 -                           R E F E R E N C E S                               -
 -                                                                             -
 -------------------------------------------------------------------------------
 
 CP2K version 9.1, the CP2K developers group (2021).
 CP2K is freely available from https://www.cp2k.org/ .

 Kuehne,Thomas D.; Iannuzzi,Marcella; Del Ben,Mauro;
 Rybkin,Vladimir V.; Seewald,Patrick; Stein,Frederick; Laino,Teodoro;
 Khaliullin,Rustam Z.; Schuett,Ole; Schiffmann,Florian; Golze,Dorothea;
 Wilhelm,Jan; Chulkov,Sergey; Bani-Hashemian,Mohammad Hossein;
 Weber,Valery; Borstnik,Urban; Taillefumier,Mathieu;
 Jakobovits,Alice Shoshana; Lazzaro,Alfio; Pabst,Hans; Mueller,Tiziano;
 Schade,Robert; Guidon,Manuel; Andermatt,Samuel; Holmberg,Nico;
 Schenter,Gregory K.; Hehn,Anna; Bussy,Augustin; Belleflamme,Fabian;
 Tabacchi,Gloria; Gloess,Andreas; Lass,Michael; Bethune,Iain;
 Mundy,Christopher J.; Plessl,Christian; Watkins,Matt;
 VandeVondele,Joost; Krack,Matthias; Hutter,Juerg. 
 The Journal of Chemical Physics, 152 (19), (2020). 
 CP2K: An electronic structure and molecular dynamics software package -
 Quickstep: Efficient and accurate electronic structure calculations.
 https://doi.org/10.1063/5.0007045

 Goerigk, Lars; Hansen, Andreas; Bauer, Christoph; Ehrlich, Stephan;
 Najibi, Asim; Grimme, Stefan. , 19 (48), (2017). 
 A look at the density functional theory zoo with the advanced GMTKN55 database
 for general main group thermochemistry, kinetics and noncovalent interactions.
 https://doi.org/10.1039/C7CP04913G

 Schuett, Ole; Messmer, Peter; Hutter, Juerg; VandeVondele, Joost. 
 Electronic Structure Calculations on Graphics Processing Units, John
 Wiley & Sons, Ltd, 173-190 (2016). 
 GPU-Accelerated Sparse Matrix-Matrix Multiplication for
 Linear Scaling Density Functional Theory.
 https://doi.org/10.1002/9781118670712.ch8

 Borstnik, U; VandeVondele, J; Weber, V; Hutter, J. 
 PARALLEL COMPUTING, 40 (5-6), 47-58 (2014). 
 Sparse matrix multiplication: The distributed block-compressed sparse
 row library.
 https://doi.org/10.1016/j.parco.2014.03.012

 Hutter, J; Iannuzzi, M; Schiffmann, F; VandeVondele, J. 
 WIREs Comput Mol Sci., 4 (1), 15-25 (2014). 
 CP2K: atomistic simulations of condensed matter systems.
 https://doi.org/10.1002/wcms.1159

 Marek, A; Blum, V; Johanni, R; Havu, V; Lang, B; Auckenthaler, T;
 Heinecke, A; Bungartz, H; Lederer, H. 
 Journal of Physics: Condensed Matter, 26 (21), (2014). 
 The ELPA library: scalable parallel eigenvalue solutions for
 electronic structure
 theory and computational science.
 https://doi.org/10.1088/0953-8984/26/21/213201

 Grimme, S; Ehrlich, S; Goerigk, L. 
 JOURNAL OF COMPUTATIONAL CHEMISTRY, 32, 1456 (2011). 
 Effect of the damping function in dispersion corrected density functional theory.
 https://doi.org/10.1002/jcc.21759

 Grimme, S; Antony, J; Ehrlich, S; Krieg, H. 
 JOURNAL OF CHEMICAL PHYSICS, 132 (15), 154104 (2010). 
 A consistent and accurate ab initio parametrization of density
 functional dispersion correction (DFT-D) for the 94 elements H-Pu.
 https://doi.org/10.1063/1.3382344

 VandeVondele, J; Hutter, J. 
 JOURNAL OF CHEMICAL PHYSICS, 127 (11), 114105 (2007). 
 Gaussian basis sets for accurate calculations on molecular systems in
 gas and condensed phases.
 https://doi.org/10.1063/1.2770708

 Krack, M. 
 THEORETICAL CHEMISTRY ACCOUNTS, 114 (1-3), 145-152 (2005). 
 Pseudopotentials for H to Kr optimized for gradient-corrected
 exchange-correlation functionals.
 https://doi.org/10.1007/s00214-005-0655-y

 VandeVondele, J; Krack, M; Mohamed, F; Parrinello, M; Chassaing, T;
 Hutter, J. COMPUTER PHYSICS COMMUNICATIONS, 167 (2), 103-128 (2005). 
 QUICKSTEP: Fast and accurate density functional calculations using a
 mixed Gaussian and plane waves approach.
 https://doi.org/10.1016/j.cpc.2004.12.014

 Frigo, M; Johnson, SG. 
 PROCEEDINGS OF THE IEEE, 93 (2), 216-231 (2005). 
 The design and implementation of FFTW3.
 https://doi.org/10.1109/JPROC.2004.840301

 Hartwigsen, C; Goedecker, S; Hutter, J. 
 PHYSICAL REVIEW B, 58 (7), 3641-3662 (1998). 
 Relativistic separable dual-space Gaussian pseudopotentials from H to Rn.
 https://doi.org/10.1103/PhysRevB.58.3641

 Zhang, YK; Yang, WT. 
 PHYSICAL REVIEW LETTERS, 80 (4), 890-890 (1998). 
 Comment on Generalized gradient approximation made simple.
 https://doi.org/10.1103/PhysRevLett.80.890

 Lippert, G; Hutter, J; Parrinello, M. 
 MOLECULAR PHYSICS, 92 (3), 477-487 (1997). 
 A hybrid Gaussian and plane wave density functional scheme.
 https://doi.org/10.1080/002689797170220

 Perdew, JP; Burke, K; Ernzerhof, M. 
 PHYSICAL REVIEW LETTERS, 77 (18), 3865-3868 (1996). 
 Generalized gradient approximation made simple.
 https://doi.org/10.1103/PhysRevLett.77.3865

 Goedecker, S; Teter, M; Hutter, J. 
 PHYSICAL REVIEW B, 54 (3), 1703-1710 (1996). 
 Separable dual-space Gaussian pseudopotentials.
 https://doi.org/10.1103/PhysRevB.54.1703


 -------------------------------------------------------------------------------
 -                                                                             -
 -                                T I M I N G                                  -
 -                                                                             -
 -------------------------------------------------------------------------------
 SUBROUTINE                       CALLS  ASD         SELF TIME        TOTAL TIME
                                MAXIMUM       AVERAGE  MAXIMUM  AVERAGE  MAXIMUM
 CP2K                                 1  1.0    0.112    0.123    3.200    3.204
 qs_energies                          1  2.0    0.006    0.011    2.496    2.505
 scf_env_do_scf                       1  3.0    0.000    0.002    1.517    1.523
 scf_env_do_scf_inner_loop            2  4.0    0.009    0.011    1.516    1.523
 rs_pw_transfer                      26  9.1    0.001    0.001    0.762    0.793
 qs_rho_update_rho                    3  5.0    0.000    0.001    0.770    0.773
 calculate_rho_elec                   3  6.0    0.003    0.003    0.770    0.773
 qs_ks_update_qs_env                  2  5.0    0.000    0.000    0.735    0.739
 rebuild_ks_matrix                    2  6.0    0.002    0.003    0.733    0.735
 qs_ks_build_kohn_sham_matrix         2  7.0    0.005    0.008    0.731    0.734
 init_scf_run                         1  3.0    0.002    0.003    0.671    0.675
 density_rs2pw                        3  7.0    0.002    0.004    0.588    0.618
 scf_env_initial_rho_setup            1  4.0    0.003    0.005    0.495    0.497
 pw_transfer                         36  8.8    0.007    0.008    0.430    0.451
 fft_wrap_pw1pw2                     32  9.8    0.001    0.002    0.415    0.436
 rs_pw_transfer_RS2PW_530             4  8.5    0.162    0.186    0.365    0.401
 fft_wrap_pw1pw2_530                 12 10.2    0.034    0.041    0.373    0.396
 sum_up_and_integrate                 2  8.0    0.004    0.006    0.393    0.396
 integrate_v_rspace                   2  9.0    0.000    0.001    0.390    0.393
 mp_waitany                         242 10.9    0.288    0.363    0.288    0.363
 potential_pw2rs                      2 10.0    0.000    0.000    0.353    0.356
 fft3d_ps                            32 11.8    0.151    0.171    0.324    0.347
 qs_init_subsys                       1  2.0    0.009    0.015    0.335    0.343
 qs_energies_init_hamiltonians        1  3.0    0.005    0.008    0.292    0.297
 cp_fm_diag_elpa                      3  7.3    0.000    0.001    0.249    0.252
 qs_scf_new_mos                       2  5.0    0.002    0.002    0.245    0.248
 qs_vxc_create                        2  8.0    0.003    0.005    0.227    0.236
 qs_env_update_s_mstruct              1  4.0    0.000    0.001    0.219    0.233
 xc_vxc_pw_create                     2  9.0    0.007    0.008    0.225    0.233
 eigensolver                          2  6.0    0.000    0.001    0.227    0.229
 calculate_rho_core                   1  5.0    0.007    0.011    0.193    0.207
 cp_fm_redistribute_end               3  8.3    0.176    0.201    0.176    0.201
 cp_fm_diag_elpa_base                 3  8.1    0.023    0.194    0.024    0.196
 rs_pw_transfer_PW2RS_530             2 12.0    0.086    0.102    0.177    0.188
 qs_dispersion_pairpot_init           1  3.0    0.009    0.132    0.160    0.184
 grid_collocate_task_list             3  7.0    0.168    0.180    0.168    0.180
 xc_rho_set_and_dset_create           2 10.0    0.003    0.005    0.160    0.179
 mp_alltoall_z22v                    32 13.8    0.138    0.175    0.138    0.175
 calculate_first_density_matrix       1  5.0    0.003    0.004    0.160    0.164
 create_qs_kind_set                   1  2.0    0.000    0.001    0.140    0.154
 read_qs_kind                         3  3.0    0.044    0.089    0.140    0.154
 cp_fm_cholesky_decompose             1  4.0    0.147    0.154    0.147    0.154
 qs_env_setup                         1  3.0    0.003    0.006    0.134    0.148
 pw_nn_compose_r                     12 10.5    0.064    0.069    0.096    0.143
 qs_env_rebuild_pw_env                2  3.5    0.002    0.003    0.125    0.138
 pw_env_rebuild                       1  5.0    0.006    0.009    0.122    0.134
 mp_bcast_i                          86  6.0    0.103    0.133    0.103    0.133
 mp_bcast_dv                          6  7.7    0.130    0.133    0.130    0.133
 parser_read_line                  9939  4.0    0.004    0.004    0.110    0.126
 parser_read_line_low                15  5.1    0.006    0.039    0.106    0.122
 xc_functional_eval                   2 11.0    0.000    0.000    0.101    0.118
 pbe_lda_eval                         2 12.0    0.101    0.118    0.101    0.118
 yz_to_x                             18 12.2    0.014    0.020    0.092    0.118
 broadcast_input_information         15  6.1    0.000    0.000    0.100    0.116
 mp_waitall_1                      2397 11.4    0.095    0.116    0.095    0.116
 make_basis_lowdin                    1  6.0    0.003    0.004    0.105    0.108
 pw_grid_setup                        5  6.0    0.001    0.003    0.099    0.101
 pw_grid_setup_internal               5  7.0    0.007    0.010    0.098    0.101
 x_to_yz                             14 13.6    0.016    0.020    0.077    0.092
 mp_irecv_dm3                        66 10.9    0.043    0.090    0.043    0.090
 mp_sendrecv_dm2                     24 11.5    0.031    0.084    0.031    0.084
 rs_pw_transfer_PW2RS_180             2 12.0    0.014    0.018    0.051    0.067
 rs_pw_transfer_RS2PW_180             3  9.0    0.017    0.021    0.058    0.066
 build_core_hamiltonian_matrix        1  4.0    0.002    0.004    0.050    0.065
 -------------------------------------------------------------------------------

 The number of warnings for this run is : 1
 
 -------------------------------------------------------------------------------
  **** **** ******  **  PROGRAM ENDED AT                 2025-10-22 11:39:00.714
 ***** ** ***  *** **   PROGRAM RAN ON                                 nid001143
 **    ****   ******    PROGRAM RAN BY                                xr223_ukcp
 ***** **    ** ** **   PROGRAM PROCESS ID                                141108
  **** **  *******  **  PROGRAM STOPPED IN /mnt/lustre/a2fs-work3/work/e89/e89/x
                                           r223_ukcp/BINDING-ENERGY-DARREN/bindi
                                           ng-energy/1-leg/s+0.00/d+4.50
