LAMMPS data file via write_data, version 4 Feb 2025, timestep = 100000, units = metal

9750 atoms
2 atom types

0 64.17 xlo xhi
0 61.75 ylo yhi
0 75 zlo zhi

Masses

1 1.007999999740698
2 15.99899999588435

Atoms # full

699 0 1 0 4.841161347532564 6.883884594178018 8.667079644341271 0 0 0
3875 0 1 0 4.82056587905652 0.7562640178997718 7.536634614824365 0 1 0
3786 0 1 0 5.914480753780514 3.8035861051084696 6.9834109580042085 0 1 0
3876 0 1 0 4.414464404376331 2.2385497880912575 7.749562384790191 0 1 0
3874 0 2 0 4.024083598757944 1.3093821341452032 7.6141819038684595 0 1 0
3784 0 2 0 5.126035480909356 3.68129711163656 7.59383954015499 0 1 0
2195 0 1 0 3.008220330354179 0.4801126363793118 8.951986353991753 0 0 0
3785 0 1 0 4.8289265490168845 4.518398521218054 7.978794350934383 0 1 0
697 0 2 0 4.253640440118826 6.082744344202684 8.91906499768067 0 0 0
714 0 1 0 6.329194649438196 3.625247162451673 9.193222882535219 0 0 0
14 0 1 0 4.28746774520454 3.2461832589030073 12.712767363448815 0 0 0
2405 0 1 0 1.5999229448239114 2.4338331545708862 9.463622582636635 0 0 0
2065 0 2 0 6.24666256154165 3.261650963548707 12.122604179644057 0 0 0
2401 0 2 0 3.2214912024504367 0.4339838219615821 11.974327776202015 0 0 0
8091 0 1 0 0.3084838350509988 4.1240658177828715 12.364421504931594 1 0 0
7955 0 1 0 2.45200558142211 6.731296447814334 9.401936320737972 1 0 0
2406 0 1 0 2.003890651738408 3.216626935319488 10.729830368511134 0 0 0
2404 0 2 0 1.4818551306641279 3.23805773819888 9.936519571737625 0 0 0
2128 0 2 0 1.0116011150969237 5.590005671717284 12.412220780360236 0 0 0
13 0 2 0 3.3428318179650924 2.9903380361784495 12.700619515372503 0 0 0
635 0 1 0 6.267023331381455 7.201951075501542 11.508656216091923 0 0 0
7956 0 1 0 1.0830628445336659 7.264757591025211 9.751113221996329 1 0 0
8090 0 1 0 0.3195533962504509 2.579302638977036 11.875455557021176 1 0 0
2402 0 1 0 3.2407491177886625 1.378966222455575 12.35823639677933 0 0 0
7954 0 2 0 1.9601681806749682 7.09859890968 10.117278707799858 1 0 0
2130 0 1 0 1.421568022165 5.505958981405684 13.280085873996699 0 0 0
506 0 1 0 4.693199438384755 6.16638900546812 13.946976253250087 0 0 0
634 0 2 0 5.842845056808813 6.346395238358067 11.374806092476348 0 0 0
698 0 1 0 4.510848867159596 5.872210478830168 9.84182257298002 0 0 0
15 0 1 0 2.9667374022750383 3.0623476838968395 13.55882952574119 0 0 0
2313 0 1 0 6.17795158577036 0.01837214768230393 9.596137390177129 0 0 0
2129 0 1 0 1.531571498398049 5.984705766753241 11.750474089061163 0 0 0
256 0 2 0 1.5626593233583133 2.556356306838111 15.102180074461884 0 0 0
3676 0 2 0 3.902474173119822 4.036963214191328 16.91325209371661 0 1 0
708 0 1 0 0.24174015662132747 3.9959998181470993 17.58718535418848 0 0 0
2125 0 2 0 5.458747405073013 1.7780011295866502 16.394971993308175 0 0 0
505 0 2 0 4.140064013150554 6.041312552391029 14.70235974591486 0 0 0
3677 0 1 0 2.899454518526472 3.9237205444800045 17.04869154691551 0 1 0
515 0 1 0 0.5354999711076661 5.485823089570208 15.18341261655177 0 0 0
253 0 2 0 4.4187093563125535 7.366057935042059 18.72297850546382 0 0 0
258 0 1 0 0.8993525743097702 2.541902708308681 14.369614523594004 0 0 0
3678 0 1 0 3.8933841892650674 4.655313980209958 16.150812126372436 0 1 0
260 0 1 0 5.477496176570148 3.6875842234576033 18.10728002068632 0 0 0
257 0 1 0 1.1330634536337116 2.5475938871888464 15.974880979825116 0 0 0
516 0 1 0 1.297179686893928 6.458144010016076 16.039129537822888 0 0 0
514 0 2 0 1.413554861896541 5.782760472276592 15.31806071525064 0 0 0
2127 0 1 0 4.843009221994706 2.5359961105972566 16.60702803356564 0 0 0
2126 0 1 0 5.107326296322625 1.0226931537602015 16.908205446918707 0 0 0
2097 0 1 0 2.4958117167610783 0.9779187985466761 15.422091057605158 0 0 0
707 0 1 0 0.7099844427091545 2.802935185050343 18.427188242372086 0 0 0
507 0 1 0 3.2613970539705472 6.408129867207643 14.557173754436898 0 0 0
706 0 2 0 1.0538307989120024 3.45362713323819 17.774331460856057 0 0 0
259 0 2 0 6.183170875915483 3.284631387224875 18.648323667890583 0 0 0
69 0 1 0 0.9544902613551555 0.3118599687118419 18.72388706452223 0 0 0
2524 0 2 0 1.581722957594888 7.714368032529444 17.39430695106756 0 0 0
231 0 1 0 2.1062053710745947 5.3684588213271915 18.748762433360312 0 0 0
446 0 1 0 3.30191791212902 0.46978919084576737 20.71277077208849 0 0 0
2204 0 1 0 6.282200638744156 6.311286039118732 19.786331971161175 0 0 0
2704 0 2 0 2.927508426766046 7.00488015027405 22.259693875212236 0 0 0
230 0 1 0 2.3846786357027896 5.018202954477551 20.278502676148904 0 0 0
155 0 1 0 0.6491704623715288 4.762602555676262 21.45224253516053 0 0 0
229 0 2 0 2.3476364071360862 5.754842755386719 19.606459231870183 0 0 0
67 0 2 0 0.3379071827053689 1.0210496962358837 19.024182263016623 0 0 0
1869 0 1 0 2.2255763947183036 2.499046746307395 21.15978946468748 0 1 0
2149 0 2 0 5.123160791562713 0.8104073847211372 20.226218572485017 0 0 0
1867 0 2 0 2.375593595773363 3.431339999277568 21.4490548558313 0 1 0
2706 0 1 0 2.3375099542926896 7.714097001928987 22.435685630084393 0 0 0
445 0 2 0 2.384771782190602 0.4680081630654245 21.074303134807877 0 0 0
447 0 1 0 2.5202776800263686 0.09322289842174009 22.007364801651097 0 0 0
2202 0 1 0 5.300285534570074 4.361213568181521 22.014791485149864 0 0 0
2201 0 1 0 5.671685308249915 3.6095320468843535 20.80124065407935 0 0 0
2200 0 2 0 4.923019823913883 4.161342329853617 21.131748723262156 0 0 0
2150 0 1 0 5.335615804961889 0.11117895105183366 19.559855130143113 0 0 0
16 0 2 0 0.0016928428571532095 7.697953830837455 19.811263207034504 0 0 0
254 0 1 0 3.811915771906843 6.829883558854497 19.27005525764624 0 0 0
2705 0 1 0 2.5809428858609595 6.194528232051225 22.677333785098472 0 0 0
1868 0 1 0 3.3412782736872537 3.6150718018210584 21.530878806903075 0 1 0
2151 0 1 0 4.894397610701328 1.5706035557684312 19.640999402504814 0 0 0
1683 0 1 0 6.11707094239146 6.477677051832303 21.890076095991823 0 1 0
1682 0 1 0 4.683148080289259 7.072828760450527 21.712393396185007 0 1 0
68 0 1 0 0.3021200354323527 1.0247923020718235 19.998686550871778 0 0 0
1681 0 2 0 5.610980978864542 7.3395232340871885 21.834848480505865 0 1 0
18 0 1 0 0.5750261756087283 7.570032717415621 19.014979823941243 0 0 0
370 0 2 0 5.234036917178325 1.1908001118349236 24.08988342661737 0 0 0
1567 0 2 0 3.4072296662993664 5.095705851445169 25.078303175483907 0 1 0
1569 0 1 0 2.7552744809799514 4.365933048500248 24.87421992426437 0 1 0
203 0 1 0 3.1687628003952644 6.6405720394011745 25.480384879463777 0 0 0
1568 0 1 0 4.205173444709366 4.883176434411121 24.54656048533096 0 1 0
99 0 1 0 3.9802542478612817 1.763243200092509 26.078711068425882 0 0 0
288 0 1 0 0.0048448481944320275 4.616832737656241 25.038567421598856 0 0 0
97 0 2 0 3.329217355061034 2.0432511387344454 26.805836008283414 0 0 0
202 0 2 0 3.2134892679682774 7.675396216835834 25.59438333080638 0 0 0
619 0 2 0 0.6320893339507113 0.9345865089269538 27.10242445106331 0 0 0
371 0 1 0 5.955232132572763 0.5871677385418486 24.367407305057107 0 0 0
2230 0 2 0 0.895268409601707 0.44758891741494133 23.96311316205013 0 0 0
98 0 1 0 3.722974785325265 2.8512701203962623 27.22967822275016 0 0 0
266 0 1 0 2.0182986905598392 6.642694903861198 27.550275561581564 0 0 0
2231 0 1 0 0.04791526071525455 0.719979651428996 24.46011205537809 0 0 0
267 0 1 0 1.1223376801358498 5.5610984466629185 26.946167197695168 0 0 0
265 0 2 0 1.7616913051727623 5.715451603913655 27.69138401051455 0 0 0
3696 0 1 0 1.39221005583596 2.3362846375579878 24.678949759286304 0 1 0
621 0 1 0 1.5143608043555827 1.2401930632665255 26.938094844249807 0 0 0
471 0 1 0 6.108738960769994 3.5454642622574166 23.804653963693283 0 0 0
3694 0 2 0 1.4916641557262718 3.301211365708155 24.425721244579943 0 1 0
469 0 2 0 5.898547922095403 4.462827276161269 23.707706347636606 0 0 0
620 0 1 0 0.5891249822367886 0.13927895056240086 27.710047730258992 0 0 0
240 0 1 0 3.195909510095763 5.060041168907895 28.116436166445517 0 0 0
3695 0 1 0 1.83644322806698 3.269987220862091 23.48745315591857 0 1 0
372 0 1 0 4.658429915238394 0.5854553895615809 23.513509950579753 0 0 0
685 0 2 0 5.645540051956709 6.931000036104784 28.573401162863945 0 0 0
291 0 1 0 2.7255489090087894 0.660830610778107 31.542477506061655 0 0 0
2592 0 1 0 0.19739269631864773 5.7797030441232184 29.345714320192705 0 0 0
290 0 1 0 1.231113090086911 1.1146125633227757 31.297219906425127 0 0 0
1958 0 1 0 2.108145024557661 7.464432630271351 32.462987179597306 0 0 0
238 0 2 0 3.970951185022973 4.690131070511041 28.541860223657142 0 0 0
289 0 2 0 2.1487130520411277 1.2062511068814317 30.98255082132109 0 0 0
239 0 1 0 3.5709289977999648 4.093728432322279 29.222100109270798 0 0 0
687 0 1 0 5.211142382349556 6.058732967498577 28.746028877539235 0 0 0
1957 0 2 0 2.363882535153161 7.261941849347361 31.511788289685427 0 0 0
2591 0 1 0 0.8373115397672215 6.427912621272268 30.552111138078306 0 0 0
686 0 1 0 5.027847341313437 7.578982736326532 28.335692038628665 0 0 0
2520 0 1 0 4.733258309158931 13.59513416738508 5.599550830943406 0 0 0
508 0 2 0 3.6322574239554655 10.66260048503671 7.026157763845438 0 0 0
4384 0 2 0 3.3300065010406668 14.661369041312286 7.008552584487946 0 0 0
8553 0 1 0 1.3446015601265244 10.666297273249123 9.076443348143398 1 0 0
2519 0 1 0 4.8416153480964965 12.044831545148861 5.386522876603429 0 0 0
510 0 1 0 4.03159053215529 11.348231149988358 7.588616639589235 0 0 0
2518 0 2 0 5.315659021718228 12.860920368196396 5.248736152837466 0 0 0
7948 0 2 0 5.49367293171208 8.211854900003917 7.981689559977125 1 0 0
509 0 1 0 2.6993222579070606 10.775053979288966 7.249928025006158 0 0 0
7950 0 1 0 5.987329146223799 8.969102842441895 8.3536046180719 1 0 0
7949 0 1 0 4.834674914920317 8.779935977960495 7.5438247336182895 1 0 0
4385 0 1 0 2.4164771565609118 14.997885334668684 7.167109770532624 0 0 0
4386 0 1 0 3.3700170850997937 13.954401342997656 7.658072113345008 0 0 0
951 0 1 0 0.9564245902386268 13.215437940264055 9.08415411337998 0 0 0
8551 0 2 0 0.9219044847467649 11.042409026731512 8.277840570879867 1 0 0
130 0 2 0 4.114429416788828 12.714964057271409 9.137940770145633 0 0 0
518 0 1 0 1.2606617340407003 14.645673621694677 13.074705766919562 0 0 0
373 0 2 0 5.0684965865583544 10.983606048349468 11.98573491603492 0 0 0
8116 0 2 0 0.8540481704923226 8.89003468107052 12.96096539656288 1 0 0
907 0 2 0 1.7000310764946096 15.184476969794371 11.528808205235494 0 0 0
3030 0 1 0 2.6622448295692585 8.913446698474992 10.405014296210046 0 0 0
596 0 1 0 1.820657303073171 12.607633009461619 13.534770677663065 0 0 0
458 0 1 0 6.328586521161639 9.83214717617256 12.212353823210135 0 0 0
908 0 1 0 1.3338582927950011 14.859991212493124 10.675678921422445 0 0 0
8118 0 1 0 0.8676624926815237 7.895131154747464 12.913382121510617 1 0 0
2674 0 2 0 5.691978343910779 14.915887042933868 13.998258005211126 0 0 0
3028 0 2 0 2.6375727537948612 9.833756664799727 10.744262085413443 0 0 0
131 0 1 0 3.6993180605630367 12.139213916368536 9.81934297470976 0 0 0
3029 0 1 0 3.4334533812255934 9.91426521873452 11.241662031939656 0 0 0
374 0 1 0 4.457272240459913 11.001256442650355 12.727367267829184 0 0 0
597 0 1 0 2.6999023852775776 11.984064623099458 12.365638871961947 0 0 0
375 0 1 0 5.6892624349293754 11.678784495429683 12.157869147268668 0 0 0
595 0 2 0 1.9581577275775746 11.762423997732204 13.042731537518913 0 0 0
2675 0 1 0 5.939756216170343 14.355708844179478 13.20834324683977 0 0 0
8117 0 1 0 1.623915003408404 9.17757393293836 12.48997783075375 1 0 0
949 0 2 0 0.675030473645311 14.1212632756329 9.423464527199409 0 0 0
132 0 1 0 5.027650283333035 13.01800019510585 9.42669146275149 0 0 0
564 0 1 0 3.706345841610051 15.372276724664882 10.844607937471185 0 0 0
2361 0 1 0 4.45353348217824 10.851411753508838 15.378352361356079 0 0 0
226 0 2 0 2.5709025896592967 11.415623010927344 17.254251687512404 0 0 0
519 0 1 0 1.7011556630609712 14.691740368261375 14.642228055308175 0 0 0
431 0 1 0 6.332307951017442 12.079826005150842 15.927116066102382 0 0 0
8290 0 2 0 0.5671867262712809 9.530026761495746 15.641173998490757 1 0 0
517 0 2 0 1.032544608607366 14.32258740703539 14.079259555201647 0 0 0
721 0 2 0 2.5398947493358004 14.165075034015048 17.702395993046782 0 0 0
2359 0 2 0 4.769056544315615 11.761287450272317 15.094358862285214 0 0 0
248 0 1 0 4.812767617314169 8.125709365492076 16.91527152306803 0 0 0
228 0 1 0 2.4789587149738272 12.352002379205215 17.5373461139547 0 0 0
2360 0 1 0 4.140381299663617 12.388438505001588 15.406902849757268 0 0 0
2526 0 1 0 2.4274669942159126 7.797058856111171 17.798599068848677 0 0 0
227 0 1 0 1.6480883632782228 11.19833476168686 16.912963530749828 0 0 0
2525 0 1 0 1.402154889569139 8.543238559173984 16.854770092771886 0 0 0
8292 0 1 0 0.8922561564247282 9.44263055403962 14.709762298730388 1 0 0
2441 0 1 0 4.111947305664489 15.308432049357263 14.994582436262293 0 0 0
723 0 1 0 1.589661319109933 14.395479049158315 17.730756444878367 0 0 0
247 0 2 0 4.802688635658164 8.512278464117502 16.023417019468386 0 0 0
722 0 1 0 2.9387337302417795 14.528948836024096 18.49601539094186 0 0 0
249 0 1 0 4.573113382415805 7.726043107450629 15.528638863253924 0 0 0
2187 0 1 0 0.4658902949206692 9.118529589433708 20.69936508884076 0 0 0
628 0 2 0 4.415958319771456 12.787559136864369 21.368468275964318 0 0 0
193 0 2 0 3.277145708761968 9.799293386480539 19.513097043606983 0 0 0
279 0 1 0 4.830070990449186 12.187650302440215 22.953483345438936 0 0 0
724 0 2 0 1.4645176651064846 14.674221262940193 21.205963448783884 0 0 0
558 0 1 0 0.5141198559457222 11.524128202131697 21.54520006117786 0 0 0
630 0 1 0 4.801040184070525 12.688850440659417 20.47180865135011 0 0 0
629 0 1 0 4.9691914808045485 13.577496443551825 21.59121031072357 0 0 0
255 0 1 0 4.162694783262429 8.233225169543832 19.040991183513388 0 0 0
194 0 1 0 2.4643505901513545 9.875417790132913 20.11544894988969 0 0 0
2185 0 2 0 0.9915213243607914 9.835934005230483 21.118865474729162 0 0 0
726 0 1 0 1.0550892260782336 13.749830753561852 21.274781552133106 0 0 0
2186 0 1 0 1.2803930174078053 9.364014203887821 21.92967102613903 0 0 0
725 0 1 0 2.4173483223591608 14.467337068439475 21.233512752884998 0 0 0
402 0 1 0 6.047463984366731 9.401970839050925 20.483132260508494 0 0 0
2583 0 1 0 3.2317949354554223 15.18256139692745 23.302279364300674 0 0 0
556 0 2 0 0.16265411158385681 12.416423291562726 21.67483296875229 0 0 0
2578 0 2 0 6.327755162060324 14.751351399475492 20.874247765214438 0 0 0
540 0 1 0 5.0990148568457245 15.431251459945829 19.65404749266647 0 0 0
2384 0 1 0 5.467958985305944 8.281587187902932 23.371996059862525 0 0 0
195 0 1 0 3.116812790150313 10.493197169481022 18.820014840135933 0 0 0
34 0 2 0 1.113617701691354 11.289489704376626 27.67509836458746 0 0 0
2982 0 1 0 1.5731568092525885 7.99494117159157 24.45479525683133 0 0 0
145 0 2 0 3.809518832585839 9.330498418963606 27.742913115820805 0 0 0
277 0 2 0 5.079485671123804 11.835382403274297 23.88749239169431 0 0 0
2981 0 1 0 1.362616102228684 9.565707177373937 24.3146238477461 0 0 0
2461 0 2 0 1.6541685610438617 11.380651179802355 24.713042175876215 0 0 0
2389 0 2 0 4.0248262202657585 14.934262366740942 26.395689901192874 0 0 0
147 0 1 0 3.4700685502195165 8.777031582355589 26.98641685446037 0 0 0
593 0 1 0 2.7267620274453552 14.406828321151977 25.246003071210314 0 0 0
204 0 1 0 4.019974898751079 7.888599451474044 25.0867987340516 0 0 0
606 0 1 0 4.083917768445636 11.01896764527765 27.0051415900142 0 0 0
36 0 1 0 1.970714819776485 11.726037566903623 27.665328172576437 0 0 0
2462 0 1 0 0.8398156848208962 11.538183263996963 25.170132029685618 0 0 0
605 0 1 0 4.489964227445549 11.780732646527733 25.683792023627603 0 0 0
160 0 2 0 0.32767223447195853 8.585992116630434 27.371582631714222 0 0 0
604 0 2 0 3.876145365498445 11.850037295494046 26.45290681791227 0 0 0
2980 0 2 0 1.026165826834332 8.664017901979717 24.064513228266375 0 0 0
594 0 1 0 1.9620712466273618 13.27373945190735 24.45960652848437 0 0 0
2383 0 2 0 5.485520516647315 8.668612069819524 24.293698574019896 0 0 0
2463 0 1 0 2.388307886420594 11.4119305345185 25.355909297785864 0 0 0
2391 0 1 0 4.301547988255404 14.116814836076907 26.796057006072626 0 0 0
592 0 2 0 1.994080882778456 14.252962778069652 24.577800782618297 0 0 0
278 0 1 0 5.897306226278787 12.506474110518848 23.9894096964993 0 0 0
2385 0 1 0 5.373515834918995 9.631237471270847 24.1253910468056 0 0 0
35 0 1 0 1.2731240465513407 10.345885708900198 27.645504597429596 0 0 0
367 0 2 0 0.6492852097251653 14.086280171435043 30.741177323125708 0 0 0
2001 0 1 0 6.359419693476748 9.478956480874087 30.970329122642855 0 0 0
839 0 1 0 5.131302564654553 13.345136229887352 32.44279056705562 0 0 0
3042 0 1 0 2.6019218909139687 10.479198454014519 30.724185435919075 0 0 0
840 0 1 0 5.070129970335473 11.891066548209544 32.01550205750237 0 0 0
3040 0 2 0 3.2766881465402067 9.838164653647627 30.47383474673171 0 0 0
3041 0 1 0 4.169629238778467 10.104427899464103 30.706283707358317 0 0 0
2594 0 1 0 5.058340887534275 14.332303618128915 29.76749575512167 0 0 0
146 0 1 0 3.3194579016578847 9.314301702976499 28.583891356402514 0 0 0
2751 0 1 0 1.2871381368497876 12.605963635701693 31.582182765997825 0 0 0
1999 0 2 0 6.05116946048844 10.446123855245277 30.88019754961178 0 0 0
1959 0 1 0 2.5873521754294515 8.212631898182257 31.261515505124315 0 0 0
2593 0 2 0 5.994268998365543 14.109803938948147 29.777219627292943 0 0 0
368 0 1 0 0.29078999388042176 14.957804042347414 31.110827028103074 0 0 0
2749 0 2 0 1.759690390526589 11.778121238097311 31.920397026544833 0 0 0
838 0 2 0 4.4960306333027305 12.583609497275003 32.42972760214807 0 0 0
1521 0 1 0 2.552059382918548 15.00046746804396 30.032653595791057 0 0 0
2750 0 1 0 2.6072526099893336 12.180735895433655 32.27401904485429 0 0 0
161 0 1 0 0.14074502143168133 8.062502546454136 28.212363505253474 0 0 0
2392 0 2 0 5.209846242633154 16.662510890335163 7.960071631630748 0 0 0
2394 0 1 0 4.599804681732383 16.33193530108882 7.363145696244551 0 0 0
2393 0 1 0 6.12284160815237 16.550859062193137 7.637941136392868 0 0 0
2914 0 2 0 5.0794896601289015 19.649635651973295 8.659829299445743 0 0 0
2915 0 1 0 5.1676551729528235 18.767864320155603 8.290345149531683 0 0 0
3006 0 1 0 6.285764563198792 20.770548439180427 9.331953829560103 0 0 0
3005 0 1 0 6.137984515899488 21.529937192624953 10.671572488118478 0 0 0
1156 0 2 0 0.015151485742493899 20.80699555096051 13.571334291065623 0 0 0
1114 0 2 0 5.67459833484488 17.974716402971133 13.017295801341234 0 0 0
3096 0 1 0 3.6881247093927336 17.73702637442821 10.752675856354642 0 0 0
2785 0 2 0 4.948634230159399 21.62907141498249 11.989553093962543 0 0 0
909 0 1 0 1.1597111271216873 16.0137663305127 11.622764598252799 0 0 0
3095 0 1 0 4.610143524829055 18.50337271357813 11.733510973441781 0 0 0
955 0 2 0 1.0620437373131568 19.306223732870787 11.261093620122024 0 0 0
563 0 1 0 4.51240127194369 15.638696566690271 9.696632456747631 0 0 0
3094 0 2 0 3.9100405260534123 18.6903924089491 11.044501623244862 0 0 0
562 0 2 0 4.447252993297964 15.901458079140243 10.58546554663922 0 0 0
957 0 1 0 2.027006424286359 19.420103502048686 11.335094163061655 0 0 0
1553 0 1 0 3.910917414055213 20.61092766563779 13.199503443749954 0 0 0
2787 0 1 0 4.391868530191235 22.465954193136046 11.953912237903518 0 0 0
2916 0 1 0 4.569493732275751 19.573496665295643 9.474386399714563 0 0 0
956 0 1 0 1.098246847305941 18.392004458360205 11.552950639801606 0 0 0
1116 0 1 0 5.500987406522667 17.042820788661423 13.186615045516083 0 0 0
2786 0 1 0 5.561030562686105 21.858641874317314 12.734248526930267 0 0 0
1115 0 1 0 5.564124050973232 18.29752660713375 14.004370260170651 0 0 0
1554 0 1 0 2.481083105267608 20.3474295433448 13.992083114239888 0 0 0
1552 0 2 0 3.455277479312463 20.202113787352918 14.012279382204325 0 0 0
2907 0 1 0 4.1450828769206565 19.12122089731123 15.369397168835153 0 0 0
703 0 2 0 1.3492170941799377 18.75120173237969 17.421169402873648 0 0 0
704 0 1 0 0.9698447818392616 18.063861506212206 17.992184395265635 0 0 0
705 0 1 0 2.103807224732542 19.065514670006866 17.983467109305586 0 0 0
3037 0 2 0 6.176102222537697 17.957147494648904 17.872185799655288 0 0 0
2442 0 1 0 3.4020822754660296 15.507521658323224 16.394028427361587 0 0 0
4915 0 2 0 4.371478656841789 21.567818194201596 16.380617474776166 0 0 0
2905 0 2 0 4.554228987829812 18.278184283863986 15.626667968664425 0 0 0
4917 0 1 0 3.8835145135449345 21.12250958288477 15.572384242210997 0 0 0
2988 0 1 0 0.09865948108149664 19.396461536449806 14.487158673219728 0 0 0
3051 0 1 0 0.9353551165332735 22.76062198442027 14.77883172418744 0 0 0
2986 0 2 0 0.035873223919177556 18.531735810418052 14.990221913109814 0 0 0
2440 0 2 0 3.3495192031332452 15.718323450011958 15.438993593980742 0 0 0
2987 0 1 0 0.6989790974201809 18.564103681609325 15.771999814855585 0 0 0
3038 0 1 0 5.653624210501004 18.00711677797505 16.995832105262693 0 0 0
4916 0 1 0 4.6876432545353195 20.820820714299842 16.974199047977564 0 0 0
886 0 2 0 0.34885033585850533 22.151349729846913 16.990418170217886 0 0 0
2906 0 1 0 3.8363659729087782 17.602695829230687 15.564640557081633 0 0 0
2775 0 1 0 1.3321587794812608 22.123715651963956 18.546720816288694 0 0 0
2528 0 1 0 6.160037792046776 23.060861801387333 14.671379362153791 0 0 0
919 0 2 0 6.325355118900364 20.8566480511538 18.365140548673782 0 0 0
3039 0 1 0 6.360284701458658 18.906908330926072 18.146288624508674 0 0 0
2964 0 1 0 2.0914447630788606 18.853074228664887 20.415928790023024 0 0 0
1825 0 2 0 5.557892781750643 19.430055933528475 22.537661107761966 0 1 0
1827 0 1 0 6.245826806817561 18.818498399349153 22.506418932418775 0 1 0
900 0 1 0 4.068780801228944 19.583295140674192 19.770859408697724 0 0 0
898 0 2 0 3.5516166086140553 18.874035212915427 19.379547611439655 0 0 0
2773 0 2 0 1.772285722489027 22.41013975190104 19.36525118815728 0 0 0
2962 0 2 0 1.4573188040662193 18.467826027646062 20.989109396078295 0 0 0
1101 0 1 0 5.249761086178884 20.59158318989395 21.386121690733 0 0 0
2774 0 1 0 2.6647297272259736 22.64959135356133 19.18438077301581 0 0 0
894 0 1 0 0.30005453650555935 20.396597006958206 21.12470243169135 0 0 0
1077 0 1 0 0.20819773581289866 21.58370051316784 23.330004407368946 0 0 0
538 0 2 0 4.721549171502057 15.92116608487318 18.891778380232843 0 0 0
1040 0 1 0 0.6418713087319077 17.22247597460924 20.17178031515917 0 0 0
1100 0 1 0 4.108050590722757 21.527756213372854 20.932338054054092 0 0 0
2963 0 1 0 1.9254428293029022 18.39858273246824 21.87068516242709 0 0 0
921 0 1 0 5.789500307016286 21.02725802593459 19.13513054687344 0 0 0
1039 0 2 0 0.09877891465564517 16.840653501330692 19.360754888000848 0 0 0
1041 0 1 0 0.32344847857494824 15.919825240508755 19.5462325926798 0 0 0
1099 0 2 0 4.93295086012029 21.12021725372641 20.590256144871017 0 0 0
899 0 1 0 3.945504212372605 17.962304446982575 19.408244400580966 0 0 0
2582 0 1 0 4.571633622016456 15.930391814163832 23.07090884315422 0 0 0
535 0 2 0 3.348464829230011 23.11256132937061 22.428468313751214 0 0 0
2581 0 2 0 3.654721702813303 15.824670074533161 22.737636203513173 0 0 0
536 0 1 0 3.6444608417412887 22.50503182017511 23.13864125958871 0 0 0
1048 0 2 0 0.6901675939278156 16.381218297287464 23.42277663711869 0 0 0
1050 0 1 0 0.9022336672895354 15.824277189095941 22.59649286805505 0 0 0
539 0 1 0 5.436214494980661 16.581003273629438 18.80139289108047 0 0 0
2375 0 1 0 1.6964732986577897 18.80511227298396 25.378216743555665 0 0 0
1140 0 1 0 4.786253615664163 20.766672902804224 25.03485127402903 0 0 0
2376 0 1 0 2.640611372905081 19.92377291181826 26.119115023082916 0 0 0
1076 0 1 0 1.0389003325514627 20.994537880546392 24.5698528928604 0 0 0
765 0 1 0 3.1648934713675354 17.34946663396353 23.526868901556654 0 0 0
8297 0 1 0 1.5117215434686102 16.89521949647195 26.920456952541965 1 0 0
2966 0 1 0 3.8516196547594483 19.05410787143056 27.215614185944062 0 0 0
2374 0 2 0 1.7184113344754541 19.706652546592913 25.76343040545243 0 0 0
8298 0 1 0 2.35537178179247 17.705004663499203 28.063111619064504 1 0 0
1075 0 2 0 0.46968089028948407 21.762844395832214 24.27161332702426 0 0 0
2967 0 1 0 3.891278165814582 20.63127316103461 27.757190459929163 0 0 0
1139 0 1 0 5.627124836909436 21.90835690566726 24.799196523859916 0 0 0
8296 0 2 0 2.3183272602691742 16.897608237028333 27.54590604159435 1 0 0
2390 0 1 0 3.7241519988723217 15.5423790468226 27.18883399634273 0 0 0
763 0 2 0 2.9667659641782373 18.06679725933176 24.158347278859956 0 0 0
2965 0 2 0 4.0165210409332746 20.01354265511381 26.959710866682887 0 0 0
1138 0 2 0 4.870940769581113 21.486680843315337 24.3955917006126 0 0 0
1049 0 1 0 1.056463227646803 15.870102315960649 24.127977521634897 0 0 0
1108 0 2 0 6.341813991513998 15.977718053167175 24.85346666862033 0 0 0
1110 0 1 0 5.793155484581178 15.692172262170494 25.61048395267407 0 0 0
1826 0 1 0 5.63057328093569 19.966437379568852 23.44666588584498 0 1 0
764 0 1 0 3.7740940475824862 18.40605923858566 24.417044384327156 0 0 0
2892 0 1 0 0.15703987319479332 23.13056414910522 28.04769984466357 0 0 0
2534 0 1 0 2.7597485630071588 19.65453273665537 29.0016002251186 0 0 0
848 0 1 0 5.592675052699357 20.095291219338876 30.876743218549482 0 0 0
1059 0 1 0 3.308918913124121 22.896218061026165 32.34239101271744 0 0 0
1519 0 2 0 3.2973880046348385 15.555978352074993 29.721486086254313 0 0 0
796 0 2 0 5.92916931712545 22.737361541172525 28.721920282767048 0 0 0
2533 0 2 0 2.4401687411032364 18.754392087707437 29.183343441799583 0 0 0
2535 0 1 0 2.615088861877992 18.558452961018812 30.098379102603612 0 0 0
1520 0 1 0 2.8655379771047937 16.03742025150562 28.939010810585795 0 0 0
847 0 2 0 4.815023961609304 19.80737430422627 31.40731874227653 0 0 0
2757 0 1 0 4.014765605755082 16.654090428400284 31.22435536047324 0 0 0
968 0 1 0 2.218432547702283 22.018712707621006 28.686217470262378 0 0 0
2755 0 2 0 4.268520739347076 17.270134318568104 32.00412823433137 0 0 0
2993 0 1 0 0.5737841733779812 20.243705178719424 31.089831435153634 0 0 0
2994 0 1 0 1.9530574513878263 20.945577499283374 30.96145318038749 0 0 0
2890 0 2 0 0.40455157593385066 22.40569289189375 28.628220090971375 0 0 0
967 0 2 0 3.109519985197229 21.6606051849609 28.945819253677296 0 0 0
849 0 1 0 4.885060564105737 18.868931799914154 31.516944160383375 0 0 0
969 0 1 0 3.622310062363864 22.336009930783906 29.48598781877714 0 0 0
798 0 1 0 6.36974405557768 21.890907342502036 29.10796108061624 0 0 0
2992 0 2 0 1.2881444095197452 20.738440270339506 31.594006185077813 0 0 0
2604 0 1 0 5.863407243259066 15.681527502975309 32.79266674879413 0 0 0
2756 0 1 0 3.4474234073308194 17.459327439777855 32.54097162700841 0 0 0
532 0 2 0 2.144790359021325 18.538861413943735 33.615617997037205 0 0 0
2831 0 1 0 4.377119295574108 20.994495256383885 32.920364842883124 0 0 0
533 0 1 0 2.7513954461526295 18.996587350317984 34.21993960768374 0 0 0
2832 0 1 0 5.135887304381204 21.931596838927494 33.908416384217624 0 0 0
2830 0 2 0 4.227137953846432 21.533878480450444 33.746223379260826 0 0 0
534 0 1 0 1.8847784866999338 19.296888242414504 33.04042319703637 0 0 0
1533 0 1 0 5.968570674312327 24.21541241373504 7.642533954062193 0 0 0
5103 0 1 0 5.828293258239653 27.86244286458315 8.564433612117888 0 0 0
5101 0 2 0 6.3543741610182165 28.508906935532828 9.06730961399266 0 0 0
9358 0 2 0 2.414022370982486 28.195820604674484 9.225134543900001 1 0 0
1361 0 1 0 3.2869881757435095 29.9459261631113 9.373889715869442 0 0 0
8750 0 1 0 1.3533729015514269 28.043729496898663 12.333967638484257 1 0 0
3256 0 2 0 0.2243012684429524 27.08945303946388 10.942394961242352 0 0 0
9359 0 1 0 3.165342118747641 27.630285280926795 9.472818598064704 1 0 0
1508 0 1 0 0.527254988287432 23.953630855379977 12.656159000851572 0 0 0
1294 0 2 0 5.88268560457699 28.882532744115228 13.824117253187024 0 0 0
3258 0 1 0 0.13939053933887557 26.0945739845062 10.98921416189154 0 0 0
3423 0 1 0 3.615451064598526 24.411916765604616 12.505239541405835 0 0 0
1509 0 1 0 1.2887701185409963 23.833524600559404 11.233325070536335 0 0 0
9360 0 1 0 1.9948097055148966 28.147599956927348 10.119532370894511 1 0 0
1507 0 2 0 0.45308473661612425 24.10438761508727 11.649485692781658 0 0 0
3277 0 2 0 4.538959837551658 25.848358986185822 9.951338142980168 0 0 0
1296 0 1 0 5.320198390432702 29.514709395216148 13.286770603362772 0 0 0
3422 0 1 0 3.534337961206408 24.18655726739686 10.947060487086352 0 0 0
8751 0 1 0 1.3709561460740525 29.557817199946225 12.445821526530654 1 0 0
3278 0 1 0 4.987342026711038 26.014009516610244 10.776398917167327 0 0 0
2825 0 1 0 4.104022643243376 30.857253516522558 11.580452607104128 0 0 0
8749 0 2 0 1.83742525242107 28.75729027810687 12.784986558300384 1 0 0
1492 0 2 0 4.7469310970051275 25.426908677690758 13.98347547370073 0 0 0
3421 0 2 0 3.3132406709500017 23.761148362021828 11.839419209876416 0 0 0
1206 0 1 0 6.361228312766056 30.29010244639873 9.786732496524746 0 0 0
5102 0 1 0 6.339669080519788 28.209202735542593 9.997642714543097 0 0 0
3068 0 1 0 6.38497507601038 27.865531523406645 12.477043219058375 0 0 0
3279 0 1 0 5.279891506730195 25.523195379582653 9.426432777280496 0 0 0
1493 0 1 0 4.329824327881751 26.314439993358743 14.007998922413048 0 0 0
2911 0 2 0 4.5877073475842 29.59094890472628 18.527374471531992 0 0 0
3237 0 1 0 0.8888078640474486 26.16946105284568 16.520088398494725 0 0 0
3173 0 1 0 4.087583212072344 24.884953970111805 17.31512394982132 0 0 0
3050 0 1 0 1.3987053384696009 24.237028357594205 14.933241795517489 0 0 0
3342 0 1 0 2.606613226581349 27.945605691201585 15.575832134901477 0 0 0
3049 0 2 0 0.7953853886171991 23.668472180457574 14.4643511387182 0 0 0
3410 0 1 0 0.952398738492389 24.260478596316396 18.16677499737333 0 0 0
8694 0 1 0 0.903616893448987 30.25641657123116 17.25186183368946 1 0 0
2912 0 1 0 4.464855090146138 30.21391581444176 17.75563112092723 0 0 0
3172 0 2 0 3.6767714301604006 24.37009169041523 16.62871082733918 0 0 0
3235 0 2 0 0.8801074630603496 26.704154397432536 15.737264394781775 0 0 0
3498 0 1 0 6.1038015232419545 28.42442319479631 18.057012289059873 0 0 0