LAMMPS data file via write_data, version 4 Feb 2025, timestep = 50000, units = metal

20640 atoms
3 atom types

0 154.00799999999998 xlo xhi
0 148.2 ylo yhi
0 151.07609208607428 zlo zhi

Masses

1 12.01099999691024
2 1.007999999740698
3 15.99899999588435

Atoms # full

7968 0 1 0 1.9156334763486007 1.6304454102114245 19.88067980482648 1 0 0
7976 0 1 0 4.037972219916867 0.3658675780909389 20.104635830686757 1 0 0
7977 0 1 0 3.372410871060186 1.595466686029743 19.977018846798916 1 0 0
7978 0 1 0 4.069015301136892 2.830922803345023 19.957340456589627 1 0 0
7967 0 1 0 1.1365488803697645 0.3633817816477818 19.953302601327884 1 0 0
7969 0 1 0 1.141901353059646 2.8773478334403078 19.738888922789265 1 0 0
7970 0 1 0 1.8393553192193564 4.129501940725034 19.730941773400257 1 0 0
7979 0 1 0 3.302211914859613 4.087733970290752 19.827973342633733 1 0 0
7927 0 1 0 5.400081428801675 0.28904049880956767 20.087194133253707 1 0 0
7929 0 1 0 5.459226661692433 2.8169791545073726 20.004460655789973 1 0 0
8 0 1 0 6.157182774959763 1.5453169677041636 20.052739209136977 0 0 0
16 0 1 0 8.29468258920824 0.3463306481795353 20.256911305315317 0 0 0
17 0 1 0 7.595532718973539 1.572567483719114 20.210899090574678 0 0 0
18 0 1 0 8.340727347678529 2.7820043107402834 20.307852048924747 0 0 0
10 0 1 0 6.1388499411107285 4.061781731801055 20.093092949379674 0 0 0
19 0 1 0 7.585626918125953 4.030678096394065 20.28935012029433 0 0 0
8023 0 1 0 1.2067985209874943 7.798170400620107 19.74507611725746 1 0 0
7980 0 1 0 4.027479002761598 5.372864876882755 19.81970835290989 1 0 0
8022 0 1 0 1.885123167451289 6.564717774067391 19.70315330903317 1 0 0
8031 0 1 0 3.291657796005391 6.581366345399921 19.80691486653874 1 0 0
8032 0 1 0 4.006648478275467 7.788750498400892 19.96663178980134 1 0 0
7961 0 1 0 1.1999068250842455 5.341462265837313 19.730881526401657 1 0 0
8024 0 1 0 1.933089514930013 9.064035128464264 19.685366896653495 1 0 0
8033 0 1 0 3.344965914310931 9.062372605897453 19.843325793465674 1 0 0
7921 0 1 0 5.482102766716111 5.335640405683886 20.045131975324782 1 0 0
7983 0 1 0 5.480510809627279 7.782033339855509 20.097994654232433 1 0 0
62 0 1 0 6.205380300460909 6.58195694370838 20.11855229088351 0 0 0
20 0 1 0 8.294306928804762 5.25065496214975 20.333676153788282 0 0 0
71 0 1 0 7.600737908280275 6.505500178946018 20.27671497549154 0 0 0
72 0 1 0 8.323133338407729 7.759466838767559 20.317940658758832 0 0 0
64 0 1 0 6.193330241440427 9.011294555788712 20.07388422468787 0 0 0
73 0 1 0 7.6332379665063534 8.99377746114984 20.222874313455907 0 0 0
8027 0 1 0 1.1853774987731744 12.756856131555672 19.855056384430238 1 0 0
8025 0 1 0 1.2270163635443094 10.258228331787366 19.700278858035908 1 0 0
8026 0 1 0 1.9133757757144014 11.491148672219039 19.738459143945025 1 0 0
8034 0 1 0 4.088461217941727 10.301273414136313 19.948435228460994 1 0 0
8035 0 1 0 3.3981207860141835 11.525494755729502 19.792534058805295 1 0 0
8036 0 1 0 4.098922176618798 12.732616433010769 19.86092465746487 1 0 0
7985 0 1 0 5.526088303747621 10.222422555398165 20.049565441620253 1 0 0
7987 0 1 0 5.4770011722591265 12.746428983003826 20.074221993674158 1 0 0
66 0 1 0 6.185351811228341 11.511629498293042 20.193605141727012 0 0 0
74 0 1 0 8.324824768131961 10.254377449470722 20.340634835534686 0 0 0
75 0 1 0 7.591783718272156 11.475954783093686 20.36618780868123 0 0 0
76 0 1 0 8.326906692239213 12.74654219512865 20.28418991152841 0 0 0
8029 0 1 0 1.1646024763260667 15.190551106552194 19.86397230041469 1 0 0
8028 0 1 0 1.883722655923407 13.973974855449578 19.898207254423482 1 0 0
8030 0 1 0 1.8709065951134134 16.440029554260047 19.709428696399517 1 0 0
8037 0 1 0 3.3492621048432065 13.967029056084868 19.88041971604308 1 0 0
8038 0 1 0 4.073345871805514 15.283847291334968 19.758469332249152 1 0 0
8039 0 1 0 3.303201067800078 16.447720492481636 19.693563322356237 1 0 0
8021 0 1 0 1.127382778848873 17.659196770943087 19.54097815783841 1 0 0
8040 0 1 0 4.000095337119752 17.658697045775135 19.585011254156473 1 0 0
77 0 1 0 7.597824973310315 14.003652110805184 20.102858298904962 0 0 0
80 0 1 0 8.291595687970753 17.712171073216524 19.93141002305641 0 0 0
79 0 1 0 7.590893732000531 16.49032991903298 19.98216042538456 0 0 0
7981 0 1 0 5.448982772668508 17.69979229005695 19.641862489399458 1 0 0
70 0 1 0 6.1938392481604545 16.48750129384968 19.806896009593295 0 0 0
78 0 1 0 8.344036269999496 15.220432392944016 20.09132114569795 0 0 0
68 0 1 0 6.15769326404728 13.978935137177462 20.0393261730727 0 0 0
7989 0 1 0 5.454341370530996 15.224618182137434 19.866934316122894 1 0 0
8082 0 1 0 1.8682618072367037 18.87068724995408 19.332164303470257 1 0 0
8084 0 1 0 1.9066658120121196 21.31699474071412 19.039687351235127 1 0 0
8091 0 1 0 3.326799404458847 18.900279325720643 19.398620073383974 1 0 0
8092 0 1 0 3.9662243268150212 20.10699797025945 19.19152883883785 1 0 0
8093 0 1 0 3.279994336258064 21.330041245741587 19.049607122369487 1 0 0
8083 0 1 0 1.1669014114888183 20.071909786362156 19.246016039482097 1 0 0
8085 0 1 0 1.149420903785034 22.520882534569612 19.09121166414553 1 0 0
8094 0 1 0 4.006866653263376 22.590755017255454 19.140885733217758 1 0 0
8045 0 1 0 5.418469742944267 22.59727173415359 19.327775401888402 1 0 0
8043 0 1 0 5.412740175857719 20.13636752103377 19.420354809499923 1 0 0
122 0 1 0 6.1410723941393375 18.88987002313311 19.561617948158773 0 0 0
124 0 1 0 6.093231676695694 21.374082636580955 19.461371654953577 0 0 0
131 0 1 0 7.573016939434367 18.938851202700317 19.735220517859805 0 0 0
132 0 1 0 8.205333205967792 20.177221777633488 19.591743525020533 0 0 0
133 0 1 0 7.549941415620366 21.388708964290927 19.603514887009645 0 0 0
134 0 1 0 8.2386592512502 22.58498205855927 19.716851851056617 0 0 0
8096 0 1 0 3.9882124249630633 25.069693356737968 19.246538159670305 1 0 0
8097 0 1 0 3.294782746556937 26.313009438598733 19.16025029121724 1 0 0
8086 0 1 0 1.8549710439610025 23.782242318045178 19.17170517773777 1 0 0
8088 0 1 0 1.880398129544449 26.271344861604096 19.232277636983493 1 0 0
8095 0 1 0 3.273239091969917 23.813970148665742 19.201560558599976 1 0 0
8087 0 1 0 1.1267742655091422 25.00030795038578 19.299617513087934 1 0 0
8098 0 1 0 4.033303489072344 27.581946950894594 19.138932728833336 1 0 0
8089 0 1 0 1.1738441729012232 27.48937150321212 19.180932788484412 1 0 0
8047 0 1 0 5.388894840944487 25.03878100614594 19.23313097062486 1 0 0
128 0 1 0 6.110469258522427 26.307929743005133 19.162212985627836 0 0 0
137 0 1 0 7.563357259151776 26.344827979488635 19.38751199960921 0 0 0
126 0 1 0 6.14409588482682 23.805069761697602 19.332527227428795 0 0 0
135 0 1 0 7.554312975145701 23.869629209543817 19.590266213426712 0 0 0
136 0 1 0 8.258632660210958 25.064054992574608 19.491374534867358 0 0 0
8049 0 1 0 5.446855423696374 27.564805033418192 19.11785820902488 1 0 0
138 0 1 0 8.253339034911592 27.548261738661704 19.48098064209664 0 0 0
8090 0 1 0 1.8923311137095522 28.7653802316725 19.230869447225164 1 0 0
8099 0 1 0 3.3176639005951105 28.767919317433098 19.17889146891094 1 0 0
8100 0 1 0 4.005468978443423 30.00829450544333 19.054673464798604 1 0 0
8151 0 1 0 3.2564860422387665 31.218270390900255 19.082258128664435 1 0 0
8142 0 1 0 1.8630770030149049 31.278347667155977 19.197300145794134 1 0 0
8081 0 1 0 1.180300406820701 30.00460632489757 19.263785940435046 1 0 0
8041 0 1 0 5.484796986030036 30.0043725882032 19.06503600684737 1 0 0
130 0 1 0 6.160785807717555 28.77637713962913 19.14082671128337 0 0 0
182 0 1 0 6.153496358069928 31.230760118336395 19.09832607868397 0 0 0
139 0 1 0 7.5601233637064995 28.77966417411615 19.241649529708234 0 0 0
140 0 1 0 8.271715770672094 29.997567848589174 19.3330987580467 0 0 0
191 0 1 0 7.56715661661846 31.273227078965256 19.293780546626234 0 0 0
8144 0 1 0 1.8613653675071613 33.72396552183571 19.18011487669315 1 0 0
8152 0 1 0 3.991234402989774 32.42346017703224 19.09357949841686 1 0 0
8153 0 1 0 3.344823385679617 33.69473003755507 19.171235397799183 1 0 0
8154 0 1 0 4.024596000198351 34.93061222749893 19.163330604918045 1 0 0
8143 0 1 0 1.1196951136378512 32.49843044214295 19.141500128110696 1 0 0
8145 0 1 0 1.2005894562842758 34.953364602085514 19.363913278118336 1 0 0
8155 0 1 0 3.3422335836380235 36.19162233161958 19.305319895825125 1 0 0
8146 0 1 0 1.914845367213542 36.183724342527896 19.371272117276597 1 0 0
8105 0 1 0 5.447047810709255 34.930856002384964 19.099943999667012 1 0 0
184 0 1 0 6.146583747762138 33.68395810370526 19.084536294956308 0 0 0
186 0 1 0 6.179635531969155 36.19464579676901 19.109908086712 0 0 0
195 0 1 0 7.598078464571378 36.14857542636134 18.97713472187631 0 0 0
194 0 1 0 8.26535680321528 34.905508586199176 19.10819392209392 0 0 0
8103 0 1 0 5.426544220838425 32.473737533622305 19.109816109751197 1 0 0
192 0 1 0 8.324402200851187 32.462867690166526 19.280487251357517 0 0 0
193 0 1 0 7.583844948515565 33.65571834922871 19.1635435153175 0 0 0
143 0 1 0 9.614971315659714 20.130587239031637 19.726384838525625 0 0 0
8148 0 1 0 1.9220724292679339 38.65928681932004 19.44684607119815 1 0 0
8156 0 1 0 4.057471038383222 37.42469866872459 19.35360412838343 1 0 0
8157 0 1 0 3.3192168853371955 38.65213703459028 19.395436093636867 1 0 0
8158 0 1 0 3.9913661360619166 39.899541614062564 19.373949823333998 1 0 0
8147 0 1 0 1.2211117660988695 37.406135791898045 19.393774688153776 1 0 0
8149 0 1 0 1.1396455550396267 39.91407459882779 19.45614093499968 1 0 0
8159 0 1 0 3.2855319242876506 41.11833112677666 19.385613272481308 1 0 0
8150 0 1 0 1.8628936323821792 41.14561615052621 19.475420582764105 1 0 0
8109 0 1 0 5.401829123751625 39.85902949282146 19.261397918620677 1 0 0
8107 0 1 0 5.4603646390322185 37.42511033100201 19.144232220158813 1 0 0
188 0 1 0 6.12603689783968 38.667127065926266 19.13809253724088 0 0 0
197 0 1 0 7.571321690175363 38.64510199073105 19.07025209638024 0 0 0
198 0 1 0 8.267624735990449 39.833319613635716 19.059162547332072 0 0 0
196 0 1 0 8.322340773824768 37.41606735181295 19.058220591361778 0 0 0
199 0 1 0 7.5784248724209915 41.068758902008284 19.159716592740015 0 0 0
190 0 1 0 6.1523549202152195 41.10094614770149 19.253323491836774 0 0 0
8202 0 1 0 1.8577537433909324 43.66099902156334 19.368925162768257 1 0 0
8160 0 1 0 4.035585835800519 42.33240913179647 19.43128058146321 1 0 0
8211 0 1 0 3.322120677755761 43.6467340064764 19.365644084138808 1 0 0
8212 0 1 0 4.024026340910731 44.85207596680193 19.294216904526625 1 0 0
8203 0 1 0 1.1171351548760236 44.790996275187275 19.504786376661368 1 0 0
8141 0 1 0 1.1700013475179183 42.3703737442594 19.438682615584103 1 0 0
8213 0 1 0 3.3438517837592245 46.07933502955443 19.370882390900356 1 0 0
8204 0 1 0 1.9228762287501815 46.06420836381763 19.53094100912704 1 0 0
8101 0 1 0 5.417712967223414 42.33932595841038 19.288276867081294 1 0 0
8163 0 1 0 5.4561615943325945 44.794127243850475 19.087653931707322 1 0 0
242 0 1 0 6.141774676501454 43.586110933642836 19.017338066724545 0 0 0
200 0 1 0 8.226185836854354 42.335067052457525 18.926250028891715 0 0 0
251 0 1 0 7.53980248515625 43.573129691532515 18.927911682083764 0 0 0
252 0 1 0 8.273207818709738 44.799358727962215 18.91451772243344 0 0 0
253 0 1 0 7.576672083192113 46.042110356350435 18.981414797856136 0 0 0
244 0 1 0 6.197523381646427 46.04412024012523 19.142351848539555 0 0 0
8205 0 1 0 1.1645954832239904 47.27394408706284 19.551768438432667 1 0 0
8215 0 1 0 3.2758607655468692 48.517160914267855 19.327136543336113 1 0 0
8216 0 1 0 4.022072389233491 49.71811232718122 19.231111424148697 1 0 0
8206 0 1 0 1.8530055622959238 48.53910991719817 19.519361645090235 1 0 0
8214 0 1 0 4.0444509696677855 47.280645292227 19.265955116938567 1 0 0
8207 0 1 0 1.1135385926248058 49.77185602217258 19.537222640237044 1 0 0
8165 0 1 0 5.440108382948296 47.29401325889463 19.130592084314063 1 0 0
8167 0 1 0 5.42158736447131 49.74837871963444 19.163303624765437 1 0 0
246 0 1 0 6.1062891843665215 48.52266724968799 19.070403884250574 0 0 0
254 0 1 0 8.307483720486424 47.28146733102598 18.81166783671125 0 0 0
255 0 1 0 7.569746261671144 48.54803153359797 18.90613588527768 0 0 0
256 0 1 0 8.244617975772202 49.75579446006172 18.769508408843173 0 0 0
8220 0 1 0 4.013213993405507 54.641012214579284 18.788748108999037 1 0 0
8208 0 1 0 1.8496006774051121 50.93636918693667 19.289054139479322 1 0 0
8217 0 1 0 3.3042154018722054 50.961798834301405 19.09969768190064 1 0 0
8218 0 1 0 4.014524912590218 52.15526520062283 18.91014584866931 1 0 0
8210 0 1 0 1.855620183503758 53.40683242316489 18.96294877381353 1 0 0
8219 0 1 0 3.2862236883758515 53.37049138002345 18.831027761077156 1 0 0
8209 0 1 0 1.1769445766986215 52.1940118132703 19.222410262473193 1 0 0
8201 0 1 0 1.1039087234415887 54.63688219877595 19.01911357107499 1 0 0
259 0 1 0 7.560514470253241 53.359522018636454 18.822096664511246 0 0 0
8161 0 1 0 5.412850159707113 54.61188524317833 18.837484259747185 1 0 0
260 0 1 0 8.232740837456053 54.667740113703566 18.822181322775986 0 0 0
258 0 1 0 8.28525004914006 52.1909115454817 18.789664682768617 0 0 0
257 0 1 0 7.589214876604815 50.963748350159086 18.796768177060237 0 0 0
248 0 1 0 6.153496181628708 50.916997468853715 18.854769215527035 0 0 0
250 0 1 0 6.152689461604139 53.356449718472064 18.836113228130703 0 0 0
8169 0 1 0 5.463515942863748 52.15065011011351 18.87073609346542 1 0 0
8264 0 1 0 1.7953779740381237 58.30074839148545 18.558337815168315 1 0 0
8272 0 1 0 3.9982921665315874 57.08319019193041 18.63523759332429 1 0 0
8273 0 1 0 3.2577986650087842 58.34587144587798 18.612871299727335 1 0 0
8262 0 1 0 1.8573739082670297 55.842262918404174 18.843595437633237 1 0 0
8271 0 1 0 3.267567924712334 55.83767603407941 18.8039439640565 1 0 0
8263 0 1 0 1.0797520221419354 57.0405404190293 18.722001618352813 1 0 0
8274 0 1 0 3.9717772415144963 59.556385670322626 18.601148527073622 1 0 0
8265 0 1 0 1.1029723652320438 59.559738632518275 18.553722811361087 1 0 0
8223 0 1 0 5.389727673577622 57.10408703278106 18.732108585960155 1 0 0
8225 0 1 0 5.3739594166680345 59.58632419337435 18.67296626136683 1 0 0
304 0 1 0 6.108975401925583 58.367011935107335 18.74084051302553 0 0 0
312 0 1 0 8.286242284084063 57.12312240718326 18.617038099501066 0 0 0
313 0 1 0 7.579373817658191 58.37671283832882 18.631076030013837 0 0 0
302 0 1 0 6.085261511107656 55.847287401596226 18.724599443927932 0 0 0
311 0 1 0 7.530335145205094 55.862515223071924 18.70959407054293 0 0 0
314 0 1 0 8.270516903946563 59.57777265543119 18.56419751400466 0 0 0
8267 0 1 0 1.1075641485680077 62.025095611296706 18.585428817620766 1 0 0
8268 0 1 0 1.7971513852475702 63.302530494510556 18.42603193168562 1 0 0
8266 0 1 0 1.8398600697533856 60.81362781534053 18.543358280580854 1 0 0
8275 0 1 0 3.2285860121893624 60.808170305182585 18.50941791064144 1 0 0
8276 0 1 0 3.939268227738438 62.08674428666809 18.4808899456707 1 0 0
8277 0 1 0 3.2809881882317473 63.30210867363696 18.45560293965889 1 0 0
8269 0 1 0 1.146271834054281 64.51702048696465 18.406194622343573 1 0 0
8278 0 1 0 3.9267671386680756 64.59983958864254 18.40205424202687 1 0 0
8227 0 1 0 5.396601702463966 62.05840211431146 18.52071825302366 1 0 0
306 0 1 0 6.128468431301289 60.81952713040197 18.561352778330676 0 0 0
308 0 1 0 6.027595906435262 63.34667531000222 18.513565576315756 0 0 0
316 0 1 0 8.220805486802465 62.078880710880924 18.55574119833892 0 0 0
317 0 1 0 7.46841795237928 63.31644444748236 18.528595872443315 0 0 0
315 0 1 0 7.589628895532473 60.86368292432712 18.549911666853184 0 0 0
8229 0 1 0 5.362646161325335 64.60035265772727 18.44412224221295 1 0 0
318 0 1 0 8.27989176517775 64.49696718661512 18.559661520347884 0 0 0
8270 0 1 0 1.8337211325587148 65.77481481945202 18.420793706697115 1 0 0
8322 0 1 0 1.8388437464185423 68.27243356111771 18.460085560770043 1 0 0
8279 0 1 0 3.2460619614220745 65.81300225598703 18.283603446704642 1 0 0
8280 0 1 0 3.9720253338451648 67.0459258514814 18.444837520183768 1 0 0
8331 0 1 0 3.2994090564937237 68.3113750688184 18.488118068160688 1 0 0
8261 0 1 0 1.1273947057006866 67.03261311289344 18.494005974048225 1 0 0
8323 0 1 0 1.18066584547313 69.46810042386724 18.710902745314147 1 0 0
8332 0 1 0 3.9834582640949003 69.5357185408399 18.574276663229877 1 0 0
8221 0 1 0 5.425050344154655 67.02126596046898 18.52238021106434 1 0 0
310 0 1 0 6.115866568632374 65.75028157459523 18.6014375964177 0 0 0
362 0 1 0 6.094537349390713 68.2825675308519 18.519555916338614 0 0 0
320 0 1 0 8.242893050663442 66.9987411917294 18.651731522451264 0 0 0
371 0 1 0 7.494399061446033 68.23749147858346 18.649412005959086 0 0 0
319 0 1 0 7.560239659163611 65.76301438854591 18.621851074886077 0 0 0
372 0 1 0 8.188050734030377 69.47585192940991 18.795479376002504 0 0 0
8283 0 1 0 5.412054066634824 69.50788986669428 18.57424180504108 1 0 0
8324 0 1 0 1.8625647975053596 70.69558561514884 18.869296348173542 1 0 0
8333 0 1 0 3.3055216280921216 70.77582871266762 18.749148182172835 1 0 0
8334 0 1 0 4.023141141244722 71.9587903551786 18.824283101961203 1 0 0
8325 0 1 0 1.176139295780985 71.94269114981441 18.8695511199198 1 0 0
8335 0 1 0 3.2936511567434636 73.19493048162178 18.91320202834664 1 0 0
8326 0 1 0 1.8698891663029675 73.16554787033427 18.873658044953935 1 0 0
373 0 1 0 7.484468926147591 70.72861895265922 18.736934201638956 0 0 0
366 0 1 0 6.136591673779224 73.18148959836745 18.946005093439734 0 0 0
374 0 1 0 8.232928832323191 71.90182055314219 18.990981608813346 0 0 0
8285 0 1 0 5.404177049591342 71.959454132369 18.700733209544563 1 0 0
364 0 1 0 6.083950290898313 70.74296177868892 18.60516672767789 0 0 0
375 0 1 0 7.564613652205737 73.17926899885809 19.0495852488452 0 0 0
8336 0 1 0 4.012046926656357 74.36961672850937 18.987778371753553 1 0 0
8337 0 1 0 3.329707945019364 75.63907062940548 19.088841072393997 1 0 0
8328 0 1 0 1.8754713345137988 75.62051317068347 18.99679435125023 1 0 0
8338 0 1 0 4.024040517832671 76.86456251790241 19.169283147773644 1 0 0
8327 0 1 0 1.1323713022600739 74.37568226543297 18.968817663190382 1 0 0
8329 0 1 0 1.1609054011201554 76.84367488949648 18.94653542011681 1 0 0
8330 0 1 0 1.8829592102828272 78.09477541898622 18.938688572111268 1 0 0
8339 0 1 0 3.3416583377286195 78.08844846998517 19.0862578451088 1 0 0
8287 0 1 0 5.398476528471986 74.44845551148576 19.01280459880703 1 0 0
8289 0 1 0 5.404138096724727 76.90536170272034 19.24454194260527 1 0 0
368 0 1 0 6.090876614918191 75.66204225907425 19.103332036153102 0 0 0
377 0 1 0 7.494714869383796 75.62587491570186 19.16182999977492 0 0 0
378 0 1 0 8.269946585061234 76.86718452358987 19.314212726143648 0 0 0
376 0 1 0 8.209103827291596 74.3924063411098 19.140231484365383 0 0 0
379 0 1 0 7.572736122769261 78.09650862421016 19.431611152610984 0 0 0
370 0 1 0 6.147228326146656 78.10607764643306 19.268110820625715 0 0 0
8382 0 1 0 1.9070295335177465 80.51773461555828 18.822660511066083 1 0 0
8391 0 1 0 3.365778638827864 80.54616724758209 18.91965817104744 1 0 0
8392 0 1 0 3.9718969472789913 81.83715617147993 19.014989294748403 1 0 0
8340 0 1 0 4.056676920558743 79.33357231600202 19.06431126028204 1 0 0
8383 0 1 0 1.1404665390078566 81.8211715752312 18.79537018622265 1 0 0
8321 0 1 0 1.1680811651838714 79.35140794922914 18.835566401020657 1 0 0
8384 0 1 0 1.877541534095556 83.05186988236514 18.85657317038964 1 0 0
8393 0 1 0 3.3068683813258466 83.04648864808505 19.008159510214494 1 0 0
8343 0 1 0 5.411775475095136 81.8304670254525 19.236499505822866 1 0 0
8281 0 1 0 5.468831735241975 79.33549626883192 19.158252933991736 1 0 0
422 0 1 0 6.159377934350429 80.54826005568361 19.319951984649926 0 0 0
431 0 1 0 7.564428148815806 80.60364380485021 19.37796857226633 0 0 0
432 0 1 0 8.297070566936721 81.85664840475883 19.340246490606976 0 0 0
380 0 1 0 8.294799021885488 79.34311204292102 19.34415279949597 0 0 0
424 0 1 0 6.105197643163809 83.0355733849718 19.300155659833543 0 0 0
433 0 1 0 7.514266150569259 83.04137931371089 19.267031105614972 0 0 0
8394 0 1 0 3.9712640783999773 84.30730330942556 19.154625605533727 1 0 0
8386 0 1 0 1.8884468001356907 85.51037167033422 18.879735359754463 1 0 0
8396 0 1 0 4.051288318258521 86.73915500735338 18.92726393471061 1 0 0
8395 0 1 0 3.3109925232763624 85.4991425264781 18.963054638756557 1 0 0
8385 0 1 0 1.1710957810981637 84.25861239185262 18.842285357814823 1 0 0
8387 0 1 0 1.176103578339308 86.71225329361833 18.951474251216894 1 0 0
8347 0 1 0 5.458801575448191 86.72611478860802 18.94318575400682 1 0 0
8345 0 1 0 5.411453731099797 84.28810754423009 19.133834137398207 1 0 0
435 0 1 0 7.573407073860209 85.49322739080301 19.063987172988828 0 0 0
426 0 1 0 6.153703319788802 85.48691185580697 19.055171680587293 0 0 0
436 0 1 0 8.276591368527681 86.74686633559445 19.0332069285239 0 0 0
434 0 1 0 8.243885632323362 84.26903085629243 19.14979854643568 0 0 0
8388 0 1 0 1.8487797667646464 87.96593595424255 18.884379392429064 1 0 0
8390 0 1 0 1.8741929323140023 90.4209375195647 18.98454213075367 1 0 0
8397 0 1 0 3.2701448214165185 87.93021146635411 18.878347073744504 1 0 0
8398 0 1 0 3.9859987026276267 89.18150210918121 18.867842839961664 1 0 0
8399 0 1 0 3.2715992227606194 90.44748210020443 18.908950390968776 1 0 0
8389 0 1 0 1.1108759274994031 89.19472077122734 18.966899520244752 1 0 0
8400 0 1 0 3.9933700338943137 91.63059009705451 18.997383238268117 1 0 0
8381 0 1 0 1.154429637259476 91.63652883627206 19.05204766312544 1 0 0
438 0 1 0 8.288208071896364 89.19833012411642 19.013393698989706 0 0 0
437 0 1 0 7.571165350406877 87.96878892777802 18.96183007376787 0 0 0
440 0 1 0 8.274300453490264 91.61927004715076 18.99096652474699 0 0 0
439 0 1 0 7.5648051035626604 90.39531177711144 19.011666287234902 0 0 0
428 0 1 0 6.121277127787017 87.95422999731487 18.84259503051937 0 0 0
430 0 1 0 6.1126575436699175 90.39686617613584 18.95681395824437 0 0 0
8349 0 1 0 5.380017756012191 89.17472284664356 18.909151594065264 1 0 0
8341 0 1 0 5.408765898009355 91.65899228169346 18.975397194488032 1 0 0
8445 0 1 0 1.1450695487988438 96.64799249586837 19.22728800254083 1 0 0
8442 0 1 0 1.8524980184543092 92.91836653761371 19.125977801477205 1 0 0
8451 0 1 0 3.270020035622155 92.85110747516349 19.11709640183903 1 0 0
8452 0 1 0 3.9311573196321 94.12036174264321 19.17287355267268 1 0 0
8453 0 1 0 3.30407456662169 95.36300310982408 19.11677090714028 1 0 0
8444 0 1 0 1.8441212406033987 95.39590241907246 19.103289318385045 1 0 0
8443 0 1 0 1.13363205536379 94.1336355625031 19.150308938998755 1 0 0
8454 0 1 0 4.027911998854518 96.58983638742373 19.07661631427618 1 0 0
8403 0 1 0 5.390088577780909 94.11625564228666 19.26263413784671 1 0 0
8405 0 1 0 5.392818365296587 96.56829897711555 19.151601470368654 1 0 0
482 0 1 0 6.143764420336032 92.89105568198742 19.163128414173293 0 0 0
491 0 1 0 7.5826031190789545 92.82101008890588 19.12094518096794 0 0 0
492 0 1 0 8.274616011537969 94.05745316011232 19.16787208516501 0 0 0
484 0 1 0 6.124642717442998 95.34286208504153 19.247110951593402 0 0 0
493 0 1 0 7.571359277605644 95.2964940948645 19.251888883687222 0 0 0
494 0 1 0 8.268875243965653 96.57204294993757 19.161418026797644 0 0 0
8446 0 1 0 1.873029076184809 97.86737199096122 19.04960980235465 1 0 0
8448 0 1 0 1.907330499473692 100.26044191361949 18.732792091079496 1 0 0
8455 0 1 0 3.2872164324048025 97.85219613392319 19.026529088076547 1 0 0
8457 0 1 0 3.317043362391475 100.29686306561453 18.866108076872596 1 0 0
8456 0 1 0 4.03567568999867 99.0483643445903 18.87865799807524 1 0 0
8447 0 1 0 1.1613173771792094 99.05994218446442 18.848527392498248 1 0 0
8449 0 1 0 1.1737381482640812 101.53806042921168 18.539560553122467 1 0 0
8458 0 1 0 4.057086982756825 101.55290942500005 18.81459171968427 1 0 0
8407 0 1 0 5.456776096314829 99.06132551676755 18.97848710723462 1 0 0
488 0 1 0 6.197256572828948 100.28368720604394 18.940493928200873 0 0 0
497 0 1 0 7.618606946466277 100.26839794957411 19.092748784459694 0 0 0
486 0 1 0 6.163243963447864 97.83334836490106 19.07161062229689 0 0 0
495 0 1 0 7.572172153849919 97.82924845196794 19.18623280093559 0 0 0
496 0 1 0 8.310658914724941 99.02634013728122 19.16983751510272 0 0 0
498 0 1 0 8.322918886540748 101.52132590699222 19.110997736076392 0 0 0
8409 0 1 0 5.472942827016832 101.53145623325454 18.907264352602667 1 0 0
8459 0 1 0 3.338493497180926 102.74652593149209 18.623944943961284 1 0 0
8441 0 1 0 1.2108769355484432 103.9719457084072 18.666475953116784 1 0 0
8450 0 1 0 1.937299106147732 102.72683174662416 18.528407495175415 1 0 0
8460 0 1 0 4.04575299459569 103.95020123191851 18.75816077768994 1 0 0
8502 0 1 0 1.924202972393576 105.23405512283337 18.74938158105993 1 0 0
8511 0 1 0 3.299205340593182 105.20351065348453 18.950593057709668 1 0 0
8401 0 1 0 5.4578785812859225 103.98422174667813 18.987226322701108 1 0 0
490 0 1 0 6.194984246506732 102.708118447877 18.997176607416904 0 0 0
499 0 1 0 7.588895764480032 102.77358906278909 19.165783969273754 0 0 0
500 0 1 0 8.301888466034919 103.97882590158297 19.364641172480862 0 0 0
551 0 1 0 7.575930650556483 105.21535505141416 19.288690106242452 0 0 0
542 0 1 0 6.146216133398709 105.23339133789713 19.098333645880597 0 0 0
8512 0 1 0 4.008720053451161 106.44119093300178 18.99580041378579 1 0 0
8504 0 1 0 1.8901068333522473 107.71175740405603 18.75020432304818 1 0 0
8513 0 1 0 3.3211004970486893 107.71406440910482 18.947999297507543 1 0 0
8514 0 1 0 3.9857087998849576 108.9428680024734 19.00694159513796 1 0 0
8505 0 1 0 1.1238760529047558 108.9230913161944 18.848616615012094 1 0 0
8503 0 1 0 1.1745072679920614 106.5159928593599 18.660135773417377 1 0 0
8506 0 1 0 1.8511542054877153 110.18336880843442 19.05461362532807 1 0 0
8515 0 1 0 3.2922253796830767 110.18798268151839 19.034101733935437 1 0 0
552 0 1 0 8.29494738413269 106.45096282435684 19.274849276374123 0 0 0
554 0 1 0 8.328127733991703 108.92051109178799 19.299472731535037 0 0 0
544 0 1 0 6.150158506882485 107.71092853855758 19.24119672802755 0 0 0
8463 0 1 0 5.4234112734108 106.45035128338894 19.168912977550843 1 0 0
553 0 1 0 7.587832032053354 107.66239210665195 19.268107929945455 0 0 0
555 0 1 0 7.545146597669401 110.14732353851326 19.357088691164016 0 0 0
8465 0 1 0 5.474943073831463 108.9716917958134 19.20580603896659 1 0 0
546 0 1 0 6.153178741235531 110.21112059787983 19.235682594797947 0 0 0
8516 0 1 0 4.002020117350149 111.40771588862862 19.14100711674055 1 0 0
8508 0 1 0 1.8460309752259836 112.65924973661848 19.15476219008159 1 0 0
8517 0 1 0 3.2812116121687667 112.62796882461234 19.166917292314714 1 0 0
8518 0 1 0 4.010946580329478 113.9338294648361 19.255547266261587 1 0 0
8507 0 1 0 1.1275082067668583 111.45437487494921 19.138188221901512 1 0 0
8509 0 1 0 1.1663117154339069 113.90366753826919 19.22889048649328 1 0 0
8510 0 1 0 1.9088787478979208 115.16611850296414 19.404687827742237 1 0 0
8519 0 1 0 3.348703718025405 115.16852191979876 19.457724382009925 1 0 0
8469 0 1 0 5.472456029424763 113.92631509585851 19.42970355644458 1 0 0
8467 0 1 0 5.437845522929677 111.43820578905874 19.166894962289028 1 0 0
548 0 1 0 6.164578729036953 112.65902178607766 19.346735048988524 0 0 0
556 0 1 0 8.279122786548717 111.36594557190818 19.494944880426413 0 0 0
557 0 1 0 7.5609955583689805 112.64396763720009 19.57246369513027 0 0 0
558 0 1 0 8.262456511168862 113.91799480194216 19.738275978528183 0 0 0
550 0 1 0 6.120784385629668 115.15776950482082 19.723326676537784 0 0 0
559 0 1 0 7.5609572728454415 115.12584415937363 19.813443076566084 0 0 0
8520 0 1 0 4.042482201050805 116.43768222238036 19.69492015779076 1 0 0
8562 0 1 0 1.8675073552855233 117.59123910846795 19.626666482980568 1 0 0
8571 0 1 0 3.307443574419635 117.64902906336492 19.764061266484806 1 0 0
8572 0 1 0 4.070092451130516 118.85201645042213 19.8674952449009 1 0 0
8563 0 1 0 1.2023356544679078 118.83632515797599 19.51751741694854 1 0 0
8501 0 1 0 1.1480216246325108 116.38398134074896 19.61508860872478 1 0 0
8573 0 1 0 3.3868528107740863 120.11900127009669 19.640090269341933 1 0 0
8564 0 1 0 1.9063250811991497 120.06793197571564 19.592720267996835 1 0 0
8461 0 1 0 5.452871662279798 116.40566035227944 19.834464287643026 1 0 0
8523 0 1 0 5.512105618035088 118.83474240451184 20.06787023687391 1 0 0
602 0 1 0 6.18331094950767 117.60540474708571 20.04140913190634 0 0 0
560 0 1 0 8.268895989047678 116.38602382510535 19.962926497949457 0 0 0
611 0 1 0 7.617345148525446 117.64686321805887 20.019274721232787 0 0 0
612 0 1 0 8.341143509266042 118.87683710077792 20.07948056477868 0 0 0
604 0 1 0 6.164421368515084 120.1319952739152 20.150547241412355 0 0 0
613 0 1 0 7.625248374934873 120.11333356815845 20.07564761591352 0 0 0
8566 0 1 0 1.91059110026897 122.55856733466132 19.734992026548728 1 0 0
8574 0 1 0 4.026728952561854 121.40532018092509 19.71466827746495 1 0 0
8575 0 1 0 3.3621018991277247 122.59848762661609 19.841727508423684 1 0 0
8576 0 1 0 4.04174736413505 123.77215879898837 20.04443058476559 1 0 0
8567 0 1 0 1.1549427583761556 123.80138606068898 19.764273308917126 1 0 0
8565 0 1 0 1.1749473899212315 121.34595248849055 19.600761940143173 1 0 0
8527 0 1 0 5.453890526630984 123.79848715867672 20.147048514864426 1 0 0
8525 0 1 0 5.454490920871164 121.37360124987107 20.036763234667305 1 0 0
606 0 1 0 6.1838782098290945 122.60436998737373 20.14091008407144 0 0 0
614 0 1 0 8.36413611441051 121.33142477643341 20.10826881247328 0 0 0
615 0 1 0 7.6367516238104525 122.59603235469686 20.18750434409821 0 0 0
616 0 1 0 8.293143232775845 123.86150838038213 20.09117851579754 0 0 0
8568 0 1 0 1.8917009130532547 125.0002706978644 19.866592991420998 1 0 0
8570 0 1 0 1.8723170400845615 127.54769574269058 19.973769119905512 1 0 0
8577 0 1 0 3.3419037042809663 125.02427269978696 20.042120078406292 1 0 0
8578 0 1 0 4.025453199383361 126.2623795004727 20.05418207298621 1 0 0
8579 0 1 0 3.3079585854063307 127.47019212574781 20.069046788407565 1 0 0
8569 0 1 0 1.1492255067262205 126.26386686011013 19.85836550142054 1 0 0
8561 0 1 0 1.1867533288476626 128.75100294123834 19.94879629684006 1 0 0
8580 0 1 0 4.026277234998208 128.73878636133014 19.999870195514706 1 0 0