(written by ASE)

20640 atoms
3 atom types

0.0      154.00799999999998  xlo xhi
0.0      148.19999999999999  ylo yhi
0.0      151.07609208607428  zlo zhi

Masses

     1      12.010999996910238 # C
     2      1.0079999997406979 # H
     3      15.998999995884349 # O

Atoms # full

     1   0   1   0.0      16.565126145417842      6.6228025916520545      18.757337549882944
     2   0   1   0.0       4.365630700018774     -4.4277189935144179      17.846569514945745
     3   0   1   0.0      16.624819167624036     -3.3258560460954216      19.022730979671493
     4   0   1   0.0      4.3535771474037963      -2.026858474066731      18.102639882940316
     5   0   1   0.0      16.562514146269582    -0.85307285794696142      19.001051029869451
     6   0   1   0.0      4.3825388140157759     0.41566159309403478      18.137185444326811
     7   0   1   0.0       16.64054250077475       1.654736670072849      19.112432593141115
     8   0   1   0.0      4.3842231291656359      2.8185507370758209      18.445992419151562
     9   0   1   0.0      16.570985364296433      4.1311490277917375      18.954391759241059
    10   0   1   0.0      4.4210891731733861      5.3425287117405151       18.62497977708064
    11   0   1   0.0      5.8188801145276496     -4.5653606474644546      17.980677968312026
    12   0   1   0.0       6.542762517816735     -3.3458910726847071      18.275396239594034
    13   0   1   0.0      5.8155897123378164     -2.0954401025935656      18.346327535979281
    14   0   1   0.0      6.5141534241537089     -0.8539488795242185      18.456512282704491
    15   0   1   0.0      5.8381322733566972     0.40356351976214738      18.334559084071046
    16   0   1   0.0      6.5670560783921292      1.6103283505334738      18.522225971163106
    17   0   1   0.0      5.8212871113162503      2.8404200264898134      18.597925394770854
    18   0   1   0.0      6.5786536442159234      4.1021960665721684      18.710385683434094
    19   0   1   0.0      5.8573010735432529      5.3434926341447753      18.741560717476158
    20   0   1   0.0       6.555007620687074      6.5783450748910912      18.741070147669472
    21   0   1   0.0      8.0533516210614557       6.580259442834608      18.698890399361385
    22   0   1   0.0      8.7342525368675545     -4.5347445501005241      18.376961222448855
    23   0   1   0.0      8.0212063232855257     -3.3163477852641874        18.4347811536881
    24   0   1   0.0      8.6521028822939527     -2.0850218291039901      18.559684280720681
    25   0   1   0.0      7.9515987506400094    -0.88978522685571015      18.635249021133632
    26   0   1   0.0      8.6918785439508124     0.37928891476369514      18.695549662951098
    27   0   1   0.0       8.000517364948573      1.6029295435912543      18.665921278660832
    28   0   1   0.0      8.7058522302240835      2.8221027486355248      18.716704516845628
    29   0   1   0.0       7.999991688863358      4.0935359362810306      18.729997451113928
    30   0   1   0.0      8.7459513327435641      5.3210258522722889      18.734584121553443
    31   0   1   0.0      10.147834156642661     -4.5375458247677702      18.443582841617147
    32   0   1   0.0      10.843782519370736     -3.2936234048173372      18.621760974769092
    33   0   1   0.0      10.115267044628037     -2.0639660425281474      18.776892352166691
    34   0   1   0.0      10.874783528285361    -0.84511951665646468      18.849123922165969
    35   0   1   0.0      10.160547955391248     0.41900964554086634      18.890402946965722
    36   0   1   0.0      10.875050166876839       1.635263733352524      18.858088169196563
    37   0   1   0.0      10.144776806772416      2.8675580236898104      18.783647367118441
    38   0   1   0.0       10.86892672940623      4.1151705380177814      18.792296244521271
    39   0   1   0.0      10.154755149462485      5.3609471685166827      18.711711784174934
    40   0   1   0.0      10.848192766299279      6.6256572108376055      18.805441737002237
    41   0   1   0.0      12.276794429537111      6.5917188512968092      18.823046721380813
    42   0   1   0.0      13.005819340892245     -4.6115006535618246       18.68611421589468
    43   0   1   0.0      12.271046867065504     -3.3362591453569643      18.770613263180941
    44   0   1   0.0      13.020440821052324     -2.1184161480312631      18.832024584795768
    45   0   1   0.0      12.319903741865673    -0.85687207892076589       18.85038845168415
    46   0   1   0.0      13.028126133269836     0.39494958525626284      18.857805089828382
    47   0   1   0.0       12.33364589709171      1.6352442906199169      18.888677636328609
    48   0   1   0.0      13.007090858549859      2.8761028450964501      18.875280198053183
    49   0   1   0.0      12.323798853185831      4.1033138949046446      18.739612575366447
    50   0   1   0.0      12.988989700107977      5.3577169156309532      18.788841242623569
    51   0   1   0.0      14.438663395910709     -4.5881905425070837      18.873062158247503
    52   0   1   0.0       15.16780359489537      -3.294831856426649       19.02740006264813
    53   0   1   0.0      14.436959449387569     -2.1059637281309245      18.907431345470954
    54   0   1   0.0      15.141897034319806     -0.8706657690750349      19.001889156889963
    55   0   1   0.0      14.418885073788477     0.36723903850621525      18.962504322275571
    56   0   1   0.0      15.156587642477149      1.6452281423787474      19.018097079034444
    57   0   1   0.0       14.45632007062766      2.8896669198452716      18.963145541183771
    58   0   1   0.0      15.172944522570244      4.1372311421786945       18.91185620930889
    59   0   1   0.0      14.413343028906874      5.3620412137094116      18.863281209969358
    60   0   1   0.0      15.151510300646319      6.5847203167037254      18.882453073232163
    61   0   1   0.0      16.525577692430133      18.905871610793422      18.799222714962994
    62   0   1   0.0      4.3371965880018752      7.8426876773561904      18.554045357887755
    63   0   1   0.0      16.515149012331246      9.0861284520802226      18.852729915621477
    64   0   1   0.0      4.3865357593908039      10.314696461752407       18.48101727946505
    65   0   1   0.0      16.497759204919205      11.587389661015996      18.998936179502628
    66   0   1   0.0       4.383908471829109      12.791079384116257      18.405439450259649
    67   0   1   0.0      16.521264553122581      13.979436271319862      18.947067078912365
    68   0   1   0.0      4.3132509294086674      15.243032844140135      18.276009713468525
    69   0   1   0.0      16.465695699021826      16.490521716657319      18.796868173083208
    70   0   1   0.0      4.3806306753062279      17.756567717691471      18.291361973784781
    71   0   1   0.0      5.7785929423685332       7.804841482121688      18.599747716158184
    72   0   1   0.0      6.4819761902114177      9.0132414718130249       18.60061224642055
    73   0   1   0.0      5.8031534134219722      10.308532071001158      18.502108281899094
    74   0   1   0.0      6.5191919614514795      11.534443011765907      18.474493793069545
    75   0   1   0.0      5.8100725874469337      12.773578158037793      18.379397461020638
    76   0   1   0.0      6.4764124690599365      14.062538911709254      18.424090108425581
    77   0   1   0.0      5.7450760571095705       15.26491748036638       18.34147895289599
    78   0   1   0.0      6.4889834549306036      16.542672509293336      18.573643084829467
    79   0   1   0.0      5.8452392308429522      17.759002179312159      18.385481565739745
    80   0   1   0.0      6.5629031048356934      19.015129257888859      18.413478373849333
    81   0   1   0.0      7.9960128546353992      19.003076565806992       18.44208385422181
    82   0   1   0.0      8.6540834123431392      7.8035992059693315      18.772125761787429
    83   0   1   0.0       7.949003279155729      9.0560763438239729      18.673027803248917
    84   0   1   0.0      8.6762441155526382      10.306973250009648      18.472625441616959
    85   0   1   0.0      7.9814620100161662         11.496922651875       18.51713771403633
    86   0   1   0.0      8.6500308229277465      12.798773591313424      18.532961243482216
    87   0   1   0.0      7.9682624124168688      14.007477404351246      18.491827731140674
    88   0   1   0.0      8.6150218145961759      15.254588750643048      18.488439701211863
    89   0   1   0.0      7.9458816105282581      16.488422898796866      18.662774267528189
    90   0   1   0.0      8.6587574759257571      17.729277033644387       18.58852641674051
    91   0   1   0.0      10.104428049144888      7.8265756738890602      18.643821722905003
    92   0   1   0.0      10.805781281057142      9.0638468989655738      18.759443355634005
    93   0   1   0.0      10.097525715862703      10.328872807087526      18.619557462821518
    94   0   1   0.0      10.794225398214762       11.56595380474509      18.665704571569719
    95   0   1   0.0      10.095567702660762       12.78377890965635      18.638696565512682
    96   0   1   0.0      10.827104159010101       14.04554499952382      18.640222030275453
    97   0   1   0.0      10.095632835873825      15.222190785480837      18.550243887022855
    98   0   1   0.0      10.756590884239927      16.509887124264164      18.704487160788222
    99   0   1   0.0      10.086051242988514      17.792136710597021      18.685489915799955
   100   0   1   0.0      10.789175513424798      19.038674169647912      18.675994281172706
   101   0   1   0.0      12.213076485523171      19.025485155736174      18.800690830328328
   102   0   1   0.0      13.013852556652019      7.8096573031678069      18.984307980712302
   103   0   1   0.0        12.2254894934135      9.0871983205418463        18.8808129926311
   104   0   1   0.0      12.960732167684075      10.298686396614597      18.887915058108788
   105   0   1   0.0      12.262539338617312      11.547305247483866      18.803511612503073
   106   0   1   0.0       12.98145880661612      12.816499623416714      18.894505817891829
   107   0   1   0.0      12.246822773122267      14.038742308662034      18.721139032686391
   108   0   1   0.0      12.941878799932347      15.239390173670619      18.845215979163129
   109   0   1   0.0      12.196681627358329      16.504934033269453      18.826179146425325
   110   0   1   0.0      12.931080291078048      17.763419011699579      18.818348867509332
   111   0   1   0.0      14.413519840954955      7.8775158845509434      18.904427185416129
   112   0   1   0.0      15.102737061674562      9.1059956724863724      18.991098137501151
   113   0   1   0.0      14.360315219705955      10.348611446491871      18.994473460872456
   114   0   1   0.0       15.08731374764289      11.554747502955681      18.955053121994315
   115   0   1   0.0      14.352474694154877      12.773088770498971      18.983244358329245
   116   0   1   0.0      15.076273046865424      14.004964811075741      19.003054089256256
   117   0   1   0.0      14.394301627797498      15.258171873076165       18.93405235730356
   118   0   1   0.0      15.050613368649632      16.504820594336824       18.77390940527761
   119   0   1   0.0      14.357171908423275      17.747100341892423      18.697857247347763
   120   0   1   0.0      15.061624998793221      18.945223361830301      18.655234623219407
   121   0   1   0.0      16.562568022794032      31.281008858165571      17.040538322757854
   122   0   1   0.0      4.4093971396357547      20.190564042597448      18.333019943546351
   123   0   1   0.0       16.59835832793825      21.428561338496479      18.647611508458301
   124   0   1   0.0      4.3744638502153945      22.716577581314748      18.360849441644238
   125   0   1   0.0      16.551613792356466      23.875396381396897      18.177440606697001
   126   0   1   0.0      4.3905225282113953       25.16034157127697      17.899373039376592
   127   0   1   0.0      16.527492384163793      26.266938179117592      17.727725125161992
   128   0   1   0.0      4.4139865384651236      27.620208166363351       17.70026970412496
   129   0   1   0.0      16.552628627537874      28.767643404532951      17.327804717534352
   130   0   1   0.0       4.421021559942715      30.088759996640078      17.683586088895765
   131   0   1   0.0      5.8586329930687544      20.216261600180495      18.383387654920007
   132   0   1   0.0      6.5862101924056144      21.458792404773654      18.354125979526067
   133   0   1   0.0      5.8245278690705184       22.66820181127683      18.311697366476864
   134   0   1   0.0      6.5362316442495958      23.876498733268811      18.257300434247497
   135   0   1   0.0      5.7798019451803482      25.117600961195457      18.023747186234974
   136   0   1   0.0      6.5219344143632609      26.302937092803397      17.911988585802188
   137   0   1   0.0      5.8102123630046769      27.582607257429611       17.68858595566148
   138   0   1   0.0      6.5514595973973559      28.808574245469114      17.672701488928428
   139   0   1   0.0      5.8027180813050556      30.097574975920924      17.624273534887536
   140   0   1   0.0       6.508469870853971      31.364977697757293      17.609573878347433
   141   0   1   0.0      7.9159068082560591      31.350081750979161      17.630369437742509
   142   0   1   0.0      8.6785776485434454      20.247295254136706       18.47936645486277
   143   0   1   0.0      7.9588044870010952       21.48269519581336      18.390496718081263
   144   0   1   0.0      8.7047502387920765      22.720788196494578      18.399688866462284
   145   0   1   0.0      7.9587202107305615      23.930785154334682      18.298053089514585
   146   0   1   0.0      8.7044280872215936      25.142986088842093      18.096686089313572
   147   0   1   0.0      7.9660881505553558      26.364651501132286       17.96093982840291
   148   0   1   0.0       8.690031504637016      27.610437512650893      17.832004895872036
   149   0   1   0.0      7.9839977867053813       28.88401813014509      17.706838910399256
   150   0   1   0.0      8.6880734282253975      30.133747464140338       17.58139383318575
   151   0   1   0.0      10.089420413453414      20.273445733464982       18.49615026599837
   152   0   1   0.0      10.834125347179821       21.49491581012375      18.472022257889162
   153   0   1   0.0      10.081576974059438       22.69385984744725      18.460422721469421
   154   0   1   0.0      10.812530536242713       23.88974244490247      18.366755488506939
   155   0   1   0.0      10.093084818463783      25.140112326584116      18.196424711016455
   156   0   1   0.0      10.784323129376872      26.370309895850212      18.055264440934938
   157   0   1   0.0      10.106707667164303      27.615259328136489      17.910711310235293
   158   0   1   0.0       10.82310340318481      28.851209975445677      17.664318650360194
   159   0   1   0.0      10.140597951281878      30.083447412800183      17.663345873906287
   160   0   1   0.0       10.79880123873019      31.315362304530439      17.573140663817796
   161   0   1   0.0      12.250955196703741      31.285427619161663      17.453344156306201
   162   0   1   0.0       12.95091483050304      20.299545125744107      18.807722316005382
   163   0   1   0.0      12.235344629465542      21.497302368821192      18.711673746466349
   164   0   1   0.0      12.996794863450791       22.71079163576562      18.568088922005067
   165   0   1   0.0      12.219025319785123      23.899144804016036       18.31706604663631
   166   0   1   0.0       12.96746623392217      25.119437019399907      18.109709814763335
   167   0   1   0.0        12.2560902014608      26.352105207598751      18.005925376560484
   168   0   1   0.0      13.039719864184521      27.572222031222985      17.709730629968792
   169   0   1   0.0      12.263133859881556       28.79477600989577      17.641219894204013
   170   0   1   0.0      12.985633328284489      30.036198002428545      17.425292413561326
   171   0   1   0.0      14.424325297512805      20.251095632657595      18.822444735877411
   172   0   1   0.0      15.173978951135666      21.429767918693379      18.703778023039519
   173   0   1   0.0      14.422034213316646      22.714965707433262      18.578639871811937
   174   0   1   0.0      15.151387418325347      23.904615393856883       18.24934093823402
   175   0   1   0.0      14.412789356373123      25.119814800592845      18.125388514756054
   176   0   1   0.0      15.093645061167981      26.359099319529857      17.846780845614312
   177   0   1   0.0      14.443111541827609      27.569077428910393      17.694732234770672
   178   0   1   0.0      15.137470809659909      28.804511797896421      17.490804178334038
   179   0   1   0.0      14.377656548542403      30.063715592757852      17.310607946719315
   180   0   1   0.0      15.083359218074589      31.315074692789633      17.195411083576914
   181   0   1   0.0       16.52159947531575      43.589806239192811      16.530081977809655
   182   0   1   0.0      4.3820885557723885       32.51923757098438      17.452676492594946
   183   0   1   0.0      16.577573468717052      33.726659823495062      16.906425938529072
   184   0   1   0.0      4.3530396569623129      34.988412924384292      17.316393690252305
   185   0   1   0.0        16.5179932839042       36.22533928294186      16.767402370660037
   186   0   1   0.0      4.3802471836583194      37.435969756279377      17.245570147458299
   187   0   1   0.0        16.5280795973914      38.619078915473608      16.437760983805731
   188   0   1   0.0      4.3980301279036844      39.947230250065296      17.124200449538261
   189   0   1   0.0      16.520013727435238      41.123243744957961      16.368917659139157
   190   0   1   0.0      4.3593618722475416      42.358174257104515      17.178255619383592
   191   0   1   0.0      5.7690453941413384      32.561251117987915      17.527716082922659
   192   0   1   0.0      6.5381894937379537      33.821758871103107      17.430584260735547
   193   0   1   0.0      5.7587905452687265      35.019846058556489      17.377601687690937
   194   0   1   0.0      6.5074026236536531      36.286537455144476       17.35401818411523
   195   0   1   0.0      5.8198660450098796      37.491630418336655       17.29404188744692
   196   0   1   0.0      6.5620069571650612      38.761606725903142       17.19636008319349
   197   0   1   0.0      5.8066293768397577      39.965419700863897      17.073912013253093
   198   0   1   0.0      6.5313342076371175       41.17785136903592      17.122267288137504
   199   0   1   0.0      5.8076187652687254      42.400568057237514      17.191788692451816
   200   0   1   0.0      6.4915769587077428      43.608714031020654      17.056510276587382
   201   0   1   0.0      7.9550735994682924      43.619604818921957       17.06923089973127
   202   0   1   0.0      8.6518125843754721      32.592096405010736       17.54756115703881
   203   0   1   0.0      7.9333110745346387      33.798383663716258      17.454262261983931
   204   0   1   0.0      8.6226466539755808      35.025597624511541      17.357586773195248
   205   0   1   0.0      7.8973519908615035       36.26794046373923      17.428042742325182
   206   0   1   0.0      8.6214949127173739      37.475202709538983      17.320492923827835
   207   0   1   0.0      7.9387390324604272      38.771907172767392      17.133964847690976
   208   0   1   0.0      8.6716422479532937      39.962465523025507      17.064120458117987
   209   0   1   0.0      7.9903288189458141      41.201662882857697      17.018695465887451
   210   0   1   0.0      8.6969949115895737      42.417816018155484       17.02775962425865
   211   0   1   0.0      10.059117530385015      32.595332132872663      17.631185797738933
   212   0   1   0.0      10.852637322470903      33.799464774876789      17.497191324499962
   213   0   1   0.0      10.068838092443713      35.023762625503707      17.332357686747322
   214   0   1   0.0      10.787415641306943      36.220551466664311      17.344200122242285
   215   0   1   0.0      10.050478963029922      37.388106819205341      17.231405159566442
   216   0   1   0.0      10.819268421092815      38.620450195840299       17.04502905745429
   217   0   1   0.0      10.107138383152265      39.874642581778737      17.091233761789045
   218   0   1   0.0      10.804932641503484      41.132574534957755      17.003246151225884
   219   0   1   0.0       10.11897895277386      42.379230472869054      17.080125010160327
   220   0   1   0.0      10.826865928930125      43.600026757260537      17.109931062149506
   221   0   1   0.0       12.25085720766867      43.634207753498067      16.896227444001902
   222   0   1   0.0       12.97369886667631      32.534819094492775      17.387034703244662
   223   0   1   0.0      12.266987753754906      33.792455834960784      17.418916329231568
   224   0   1   0.0      12.922576597191224      35.028763841526164      17.315601313068019
   225   0   1   0.0       12.20215978007189      36.247104900334477      17.254055222518765
   226   0   1   0.0      12.911051310488334      37.406690065619003       16.94862086681659
   227   0   1   0.0      12.213920011007763      38.657985873521653      16.930526488659066
   228   0   1   0.0       12.97031122050562      39.948319338287796      16.847526016508102
   229   0   1   0.0       12.20208041166579      41.146245879556908       16.84272283055822
   230   0   1   0.0      12.946748053229475      42.378775603643767      16.845252603443488
   231   0   1   0.0      14.365667312642987      32.476028752847647      17.250673764086937
   232   0   1   0.0      15.111580934770997       33.69686477608866      17.055136208038103
   233   0   1   0.0      14.361418327126884      34.954561124425574      17.147322929837554
   234   0   1   0.0      15.056186762866608      36.211856368678788      16.879127581178246
   235   0   1   0.0      14.360826550174123      37.450264900495348      16.771204150777557
   236   0   1   0.0      15.059225473415355      38.676088367510793      16.490648193852767
   237   0   1   0.0      14.367068887313735      39.920487040882037      16.642975175751602
   238   0   1   0.0      15.054620386879025      41.122093943693315      16.528519374307894
   239   0   1   0.0      14.360734600195727      42.356539548024955      16.714299329749085
   240   0   1   0.0         15.063891986163      43.563400819632335      16.626940151570693
   241   0   1   0.0      16.492028602496553      56.001055825057115      16.234518779841398
   242   0   1   0.0      4.3625070821657639      44.842336997056464      16.879370187411066
   243   0   1   0.0      16.486402209283195      46.056481197927326      16.650113997125988
   244   0   1   0.0      4.3324347553784985       47.34854901427822      16.766878236981213
   245   0   1   0.0      16.462172713435212      48.534936783275427      16.686659769258544
   246   0   1   0.0       4.354381795533687      49.819770324748141      16.653299411355803
   247   0   1   0.0      16.449888522615595      51.062730832427889        16.4444748029007
   248   0   1   0.0      4.3962511088400404      52.285421537085199      16.580470589907311
   249   0   1   0.0      16.480577993645511       53.54902242749553      16.317333571373474
   250   0   1   0.0      4.3695172364764163      54.791735212560873      16.559551125051598
   251   0   1   0.0      5.8086742541495786      44.858449630716095      16.924567547363708
   252   0   1   0.0      6.5193704627531028       46.05091723499266      17.041745038066583
   253   0   1   0.0       5.798193813174219      47.280244601842341      16.811790345511202
   254   0   1   0.0      6.4889120839807646      48.591205200094592      16.758701805840335
   255   0   1   0.0      5.7563375314750918      49.814554118441229      16.627498977310154
   256   0   1   0.0      6.5360641544206235      51.033142787816267      16.655786606958337
   257   0   1   0.0      5.8199391648678711      52.315018267190752      16.556419255007359
   258   0   1   0.0      6.4875000005935641       53.57826729985301      16.634899627201253
   259   0   1   0.0      5.8214354667739077      54.819366542014563      16.562484011265656
   260   0   1   0.0      6.5188166192202468      56.005792451353244      16.573831482463593
   261   0   1   0.0      7.9371702914367663      55.996207073302919      16.568889943405242
   262   0   1   0.0      8.6648024301640874      44.850093970805496      17.188207536351896
   263   0   1   0.0      7.9337002873563769      46.090920641677918      17.217489249355726
   264   0   1   0.0      8.6698257244040295      47.283276473647781       17.10510114336557
   265   0   1   0.0      7.9327060900918323       48.54145250890577      16.815529597974926
   266   0   1   0.0      8.6723123456687929      49.785094327277136       16.81392723731512
   267   0   1   0.0      7.9612430976045507      51.016023633026983      16.679482250579301
   268   0   1   0.0      8.6394404772781517       52.28515886937366      16.632663413057337
   269   0   1   0.0      7.8791756412726359      53.512473026503159      16.697428531762689
   270   0   1   0.0      8.6440068135738208      54.723271139748412      16.666554160194554
   271   0   1   0.0      10.086752229501535      44.835695185715807       17.13051741258333
   272   0   1   0.0      10.806853676885114      46.089291587268775      17.036257509854636
   273   0   1   0.0      10.112697956667738       47.33170771275659      16.995994945040859
   274   0   1   0.0      10.822088657460739       48.55253760742756      16.943107960213045
   275   0   1   0.0      10.071857623518968      49.767923048628205      16.906287301560102
   276   0   1   0.0      10.754054053334913      51.057954387560976      16.762758243191509
   277   0   1   0.0      10.067374673501421      52.266060229998693      16.702806523252242
   278   0   1   0.0      10.791188192874209      53.529603313019898      16.623980050343896
   279   0   1   0.0      10.082115678000058      54.759593560592307      16.571826943795323
   280   0   1   0.0      10.816837064041353       56.01094351608026      16.428536142464029
   281   0   1   0.0      12.194245298570403      55.984249279790248      16.409037627923116
   282   0   1   0.0       12.94608205529086       44.85636536539284      16.856249640104913
   283   0   1   0.0      12.203485125836872        46.0500488956502       16.97415790394399
   284   0   1   0.0      12.940736745844548      47.326878823311013      16.934513946612309
   285   0   1   0.0      12.221000244200804      48.584119393255349        17.0259851945886
   286   0   1   0.0      12.941181677824636      49.761822319144727      16.806225104052416
   287   0   1   0.0      12.200333704497163      51.021398615829476      16.682926556311422
   288   0   1   0.0      12.903016779706066      52.278313449843345      16.564071078677959
   289   0   1   0.0      12.194293013013699      53.524760129400491      16.421834757189178
   290   0   1   0.0      12.897150572996702      54.729754862715666      16.344987010987779
   291   0   1   0.0      14.369773182236615       44.82039343785695      16.734334205648601
   292   0   1   0.0      15.078034328040482      46.035107601083951      16.753515864805561
   293   0   1   0.0      14.353816197809941      47.275867604450454       16.79349429034481
   294   0   1   0.0       15.07209953296838       48.50552409230378      16.778789506235473
   295   0   1   0.0      14.352623531436624      49.762776304019027      16.792929250350909
   296   0   1   0.0      15.035970537374141      51.056543411673481      16.611414298013084
   297   0   1   0.0      14.335518428800951      52.304723721298714      16.555895055298556
   298   0   1   0.0      15.066850124117463      53.528576142080347      16.351451281524184
   299   0   1   0.0      14.358236297083295      54.750469250422825      16.339212546951966
   300   0   1   0.0      15.079630875554574      55.989803194860791      16.291998014204601
   301   0   1   0.0      16.537248199291316      68.322319025341415      16.753710795279186
   302   0   1   0.0      4.3603660088073815      57.253178609803584      16.314164878130338
   303   0   1   0.0      16.576050720451935      58.528998668280877       16.34229808715186
   304   0   1   0.0      4.3868941501426821      59.772286740320226       16.56171349954154
   305   0   1   0.0      16.491833014931782       60.96586871489464      16.630998957876628
   306   0   1   0.0      4.3594560078332325      62.231915800777379      16.649345443550335
   307   0   1   0.0      16.474323672183729      63.416299126543464      16.523806116642067
   308   0   1   0.0       4.360638846294437      64.670823586474697      16.915288470159926
   309   0   1   0.0      16.482273857535375       65.87889193688504      16.589747873415234
   310   0   1   0.0      4.3882224311639089      67.135224950128048      16.871734285841413
   311   0   1   0.0      5.7793642624959718      57.247996599413462      16.500124190248439
   312   0   1   0.0       6.494959657403963      58.492499525388034      16.465597573589505
   313   0   1   0.0      5.8314907648175547      59.697460993608694      16.535939850989468
   314   0   1   0.0      6.5196308175249289      60.930736703722324      16.566208199463134
   315   0   1   0.0      5.8246117173031111      62.179575092568534      16.538001999098682
   316   0   1   0.0      6.5056453597932515      63.453285436920339      16.511670012329027
   317   0   1   0.0      5.8207167117623388      64.626031762871975      16.707226250529477
   318   0   1   0.0      6.5405218690587379       65.92018681780246      16.747295881871551
   319   0   1   0.0      5.7887536565747935      67.133336164360202        16.7979679905335