LAMMPS data file via write_data, version 4 Feb 2025, timestep = 50000, units = metal

10140 atoms
3 atom types

0 154.00799999999998 xlo xhi
0 148.2 ylo yhi
0 151.07609208607428 zlo zhi

Masses

1 12.01099999691024
2 1.007999999740698
3 15.99899999588435

Atoms # full

7201 0 1 0 2.879750560268862 0.5418157954728047 70.29224367654528 1 0 0
7260 0 1 0 1.4673778041479961 0.5775229820571818 70.31616601202738 1 0 0
7263 0 1 0 2.8808869184363433 3.0239219080066673 70.17982949045621 1 0 0
7312 0 1 0 1.4345422898819729 3.037454385239755 70.33273632529321 1 0 0
7982 0 1 0 3.6450651429468177 1.7727059264538216 70.23898790128976 1 0 0
7311 0 1 0 0.7527659616027486 1.8222210867026578 70.40323765821098 1 0 0
7313 0 1 0 0.7818518729673358 4.281328887182313 70.3211095830451 1 0 0
7984 0 1 0 3.602439497213192 4.215002807170908 70.11330213329047 1 0 0
8002 0 1 0 7.903507527548371 1.8099889595063887 69.81692788106137 1 0 0
7992 0 1 0 5.816168038634609 3.068349408050395 69.9482810930128 1 0 0
7940 0 1 0 5.771700409296776 0.5871123626863781 70.15227318423655 1 0 0
7991 0 1 0 5.066570626570899 1.8274447633289421 70.13424874640276 1 0 0
8003 0 1 0 7.2358779926335925 3.0604158261646206 69.80142390523406 1 0 0
7941 0 1 0 7.194677997745507 0.5823127949187297 70.00944906010687 1 0 0
7993 0 1 0 5.04180358675962 4.3132363679950885 69.98035544032719 1 0 0
8004 0 1 0 7.9171356502175225 4.275662384816057 69.50930145929733 1 0 0
7960 0 1 0 9.997612244482463 0.5878784053964626 69.65544896287675 1 0 0
8022 0 1 0 12.138918891765417 1.7899790658204926 69.4931094100704 1 0 0
7961 0 1 0 11.405906435772092 0.5696323077155705 69.63310404988219 1 0 0
8023 0 1 0 11.463229003667097 3.0319111696949417 69.49099241139014 1 0 0
8011 0 1 0 9.323818770152227 1.855199364424189 69.64089946584171 1 0 0
8012 0 1 0 10.040312359432756 3.0232128832792666 69.5480357935613 1 0 0
8013 0 1 0 9.31714276566079 4.252300577715666 69.4151916573928 1 0 0
8024 0 1 0 12.14060695574234 4.2839458553079 69.42365612033186 1 0 0
7267 0 1 0 2.851914476432216 7.948877340847527 70.05766436511263 1 0 0
7316 0 1 0 1.4519962170018035 8.027027800141285 70.26863639415365 1 0 0
7986 0 1 0 3.5749287877262685 6.72080930471544 69.96450684053463 1 0 0
7265 0 1 0 2.89980402727698 5.474249214495731 70.035523604529 1 0 0
7314 0 1 0 1.4939296598012166 5.4789842047933375 70.2738941635752 1 0 0
7315 0 1 0 0.7612343973499291 6.751532650573203 70.3114996228169 1 0 0
7988 0 1 0 3.5223039968025045 9.160086942800453 70.00995744969767 1 0 0
7317 0 1 0 0.8024651752345145 9.218989183618177 70.5768357836648 1 0 0
7996 0 1 0 5.7574243750020715 7.991397231044384 69.69813994418588 1 0 0
7995 0 1 0 4.973519671953935 6.817993820171836 69.72155976855548 1 0 0
7994 0 1 0 5.679550743733083 5.53402682956004 69.74968502856875 1 0 0
8005 0 1 0 7.1533664320053525 5.478044942039588 69.61534078410891 1 0 0
8006 0 1 0 7.828828444997964 6.6945157874657735 69.43803008482955 1 0 0
8007 0 1 0 7.163267427456317 7.924300335550389 69.59647565056115 1 0 0
7997 0 1 0 4.974830184798891 9.230767030700113 69.83403653349993 1 0 0
8008 0 1 0 7.857656047172386 9.15617099819097 69.60717027330992 1 0 0
8025 0 1 0 11.39581231630623 5.55478900592128 69.23635492142577 1 0 0
8026 0 1 0 12.135660773267702 6.714373264717934 69.0759181399895 1 0 0
8027 0 1 0 11.391830542952157 7.93142009956712 69.18169555645107 1 0 0
8014 0 1 0 10.026357890845084 5.445345868949317 69.29368380399352 1 0 0
8015 0 1 0 9.283280848088054 6.691311262674393 69.27059230839969 1 0 0
8016 0 1 0 9.964493918904942 7.89059711948656 69.26054881596544 1 0 0
8028 0 1 0 12.120463615339144 9.180191184709843 69.19228144059615 1 0 0
8017 0 1 0 9.253735252303256 9.155947562802147 69.52274289268023 1 0 0
7319 0 1 0 0.8015030453656051 11.688520810819993 70.58797418069014 1 0 0
7261 0 1 0 2.9178136532580408 12.906918549931824 70.1157653635704 1 0 0
7320 0 1 0 1.5427316425318955 12.924250388869952 70.47898068523621 1 0 0
7269 0 1 0 2.888106899442526 10.440460916008597 70.18148472611097 1 0 0
7990 0 1 0 3.60296081307834 11.637339505154815 69.94352701195237 1 0 0
7318 0 1 0 1.508766453756017 10.494380964305726 70.5247811322215 1 0 0
8000 0 1 0 5.715092595853055 12.91612320842139 69.7172724165071 1 0 0
7999 0 1 0 5.03118736330897 11.652629778742382 69.83597595588725 1 0 0
7998 0 1 0 5.720637059084196 10.420771890765916 69.7504240558151 1 0 0
8010 0 1 0 7.8362653983660175 11.678309275731756 69.61265849031827 1 0 0
8009 0 1 0 7.139844583122875 10.424448564554275 69.65398370691767 1 0 0
8001 0 1 0 7.114227025621741 12.879221614597418 69.67612461265956 1 0 0
8021 0 1 0 11.425648042177778 12.860340322785468 69.4394361426491 1 0 0
8019 0 1 0 9.249729693124788 11.676790892379998 69.58943806098834 1 0 0
8030 0 1 0 12.108247782882406 11.654835116852302 69.33018350859399 1 0 0
8029 0 1 0 11.38639931332341 10.409953790965812 69.32762198379795 1 0 0
8018 0 1 0 9.98483916343861 10.351844309392966 69.48107681881866 1 0 0
8020 0 1 0 10.028480199503239 12.90050059179378 69.5587474530902 1 0 0
7373 0 1 0 0.8506682598197918 16.61849673774995 70.80648508864822 1 0 0
7372 0 1 0 1.5183703331340226 15.359786932298395 70.49432767049899 1 0 0
7323 0 1 0 2.941828401289354 15.38110533831329 70.29335501896648 1 0 0
8044 0 1 0 3.688911013438005 16.578177852969752 70.27776399906965 1 0 0
7371 0 1 0 0.8272033356532711 14.132031446104588 70.58941042356264 1 0 0
8042 0 1 0 3.592909092030424 14.153289104553583 70.01248903926586 1 0 0
7325 0 1 0 2.9437070180389475 17.85320550598765 70.48654025447352 1 0 0
7374 0 1 0 1.5495848888430097 17.863835207587528 70.71380253859414 1 0 0
8062 0 1 0 7.875559710872466 14.137631890359582 69.65411586617448 1 0 0
8051 0 1 0 5.020201686861059 14.114899217603705 69.84296086273672 1 0 0
8053 0 1 0 5.057810031332943 16.62476052774096 69.98125992382585 1 0 0
8052 0 1 0 5.73351602703419 15.35779888452735 69.85662632817454 1 0 0
8063 0 1 0 7.15856776231066 15.37987028413164 69.63893894018098 1 0 0
8064 0 1 0 7.909915560476877 16.59418376122894 69.62041252487298 1 0 0
8054 0 1 0 5.745635409873652 17.847990731285094 69.89265072481615 1 0 0
8065 0 1 0 7.185318338644332 17.850959136203418 69.66305822242543 1 0 0
8085 0 1 0 11.453238431477695 17.787742830365666 69.42472100832791 1 0 0
8074 0 1 0 10.018735417940322 17.815425645055022 69.5610326656413 1 0 0
8082 0 1 0 12.14470522449071 14.039012932135124 69.50758736353743 1 0 0
8072 0 1 0 10.016967420667676 15.379810282732517 69.67689967053732 1 0 0
8071 0 1 0 9.277398580462094 14.126096600338558 69.72161381511717 1 0 0
8073 0 1 0 9.288525927395453 16.581016769251146 69.60513860089227 1 0 0
8084 0 1 0 12.163509796593068 16.544529085218322 69.42724541469505 1 0 0
8083 0 1 0 11.419666830581168 15.334926974486295 69.5389829380783 1 0 0
7377 0 1 0 0.8320729527436095 21.473977958956365 70.94691797065705 1 0 0
7327 0 1 0 2.9435312344220934 20.263841165025287 70.61089941858022 1 0 0
7376 0 1 0 1.5361516971864575 20.265395756012374 70.81662989239696 1 0 0
8046 0 1 0 3.6668803330218895 19.083931610225736 70.4203231549794 1 0 0
7375 0 1 0 0.8261847542548709 19.07861478137156 70.88415651224291 1 0 0
8048 0 1 0 3.5988438577725312 21.551503714148875 70.46813339715922 1 0 0
7378 0 1 0 1.5168792231607258 22.722993220715843 70.81433459193275 1 0 0
7329 0 1 0 2.901952293373621 22.811927263070636 70.53470230718231 1 0 0
8055 0 1 0 5.033352946787564 19.07415991460727 70.14341864904723 1 0 0
8056 0 1 0 5.770514382322808 20.30661772061757 69.86664713631849 1 0 0
8067 0 1 0 7.187430443666946 20.340445982526997 69.66580988290588 1 0 0
8066 0 1 0 7.907056901306587 19.070035895166072 69.54475720838194 1 0 0
8057 0 1 0 5.043688352880584 21.532934067793917 70.19201182528619 1 0 0
8068 0 1 0 7.95912747091567 21.595317189298612 69.67716001582127 1 0 0
8058 0 1 0 5.764513380048458 22.822628083803977 70.10199523811963 1 0 0
8069 0 1 0 7.1949535245310585 22.8298501121248 69.83983789720682 1 0 0
8075 0 1 0 9.289748791501149 19.062163288233698 69.48201430643408 1 0 0
8087 0 1 0 11.45131677514221 20.302273145082 69.22057693087552 1 0 0
8088 0 1 0 12.103267618166255 21.53605822508233 69.06642398896699 1 0 0
8086 0 1 0 12.189684702898347 19.0664571863496 69.23111721666058 1 0 0
8077 0 1 0 9.321440335824057 21.522319417769413 69.42571238741245 1 0 0
8076 0 1 0 10.041918782789255 20.292371234128126 69.3414769498714 1 0 0
8089 0 1 0 11.411135433615529 22.736811457475696 69.27574446771682 1 0 0
8078 0 1 0 10.00540598182359 22.77856822999909 69.44632912645359 1 0 0
7380 0 1 0 1.465761908212403 25.246855706566514 70.73893113600838 1 0 0
7379 0 1 0 0.7733009069426453 23.961104833585967 70.81301255630095 1 0 0
7431 0 1 0 0.8287202046641089 26.501338318646958 70.89845692658481 1 0 0
8050 0 1 0 3.566258987432942 24.036781904713155 70.37522090523885 1 0 0
7321 0 1 0 2.8857574308574008 25.31637136595708 70.48396357641904 1 0 0
8102 0 1 0 3.6775546687195733 26.528705932113564 70.51421727386159 1 0 0
7432 0 1 0 1.5307066267314244 27.751727885354228 70.86732358315216 1 0 0
7383 0 1 0 2.934322722871912 27.76111728861533 70.72321518036567 1 0 0
8111 0 1 0 5.053395496691944 26.57133005798158 70.38003340469756 1 0 0
8059 0 1 0 5.002337837362678 24.06130566737375 70.28890706313223 1 0 0
8060 0 1 0 5.7107961485059135 25.28103746980903 70.25186924917755 1 0 0
8061 0 1 0 7.134445495586909 25.22844406728972 70.10541999394641 1 0 0
8122 0 1 0 7.899745963149652 26.467968743333536 70.06656118181375 1 0 0
8070 0 1 0 7.908853980769218 23.99955392921473 69.9425458210219 1 0 0
8112 0 1 0 5.768278672244923 27.752670733228115 70.4045974150069 1 0 0
8123 0 1 0 7.21575196378148 27.711498104828415 70.27901519477834 1 0 0
8131 0 1 0 9.352877893163274 26.462278196246235 70.0314421614186 1 0 0
8079 0 1 0 9.296510644087164 23.96204018935403 69.71331540553521 1 0 0
8080 0 1 0 10.024356726444747 25.200077723562472 69.72689032712533 1 0 0
8081 0 1 0 11.480049298199424 25.23372429978252 69.6057875900351 1 0 0
8090 0 1 0 12.120357693230348 23.97621174168803 69.27623699629386 1 0 0
8142 0 1 0 12.17579222153155 26.43615896849444 69.69854917422913 1 0 0
7433 0 1 0 0.814988482988492 28.960246408137465 70.854864803696 1 0 0
7385 0 1 0 2.9079477786844183 30.234595004209915 70.66287298567563 1 0 0
7434 0 1 0 1.5098233645597345 30.178673054172123 70.8271952804275 1 0 0
8104 0 1 0 3.661101090062788 29.018681457499547 70.56380300027672 1 0 0
7435 0 1 0 0.8188089042610632 31.408243849178245 70.77735750710967 1 0 0
8106 0 1 0 3.6017400100963384 31.468571396436918 70.66899446170514 1 0 0
8125 0 1 0 7.213622573199432 30.211533165745657 70.47326537471967 1 0 0
8113 0 1 0 5.064618278367721 28.997299670254314 70.53909747900475 1 0 0
8114 0 1 0 5.7903835615285155 30.22061648921569 70.63129745061647 1 0 0
8126 0 1 0 7.915647746240371 31.41438321943812 70.4781849649688 1 0 0
8115 0 1 0 5.050136316653725 31.461931165461703 70.7361192485839 1 0 0
8124 0 1 0 7.959809845781651 29.01393659417393 70.32277475664331 1 0 0
8144 0 1 0 12.198526171068707 28.924166699598782 69.95336719611709 1 0 0
8143 0 1 0 11.46105676291639 27.67543640353174 69.8469175523238 1 0 0
8134 0 1 0 10.042742110294048 30.169188678012077 70.21889753658888 1 0 0
8145 0 1 0 11.467260415269363 30.18735795251091 70.10190912285098 1 0 0
8135 0 1 0 9.310087308024452 31.417021454811454 70.32195120058356 1 0 0
8146 0 1 0 12.187261325758099 31.369591870092652 70.08004608606046 1 0 0
8132 0 1 0 10.041330671402548 27.678211169389428 69.99942434445816 1 0 0
8133 0 1 0 9.3896336528644 28.934642212626287 70.159470397128 1 0 0
7438 0 1 0 1.4972489356450753 35.13570206311308 70.66802019316852 1 0 0
7437 0 1 0 0.7594376324137485 33.919965993367825 70.74803580659004 1 0 0
7389 0 1 0 2.900687801824626 35.170749165004096 70.57772588083347 1 0 0
7387 0 1 0 2.877643859191951 32.69885130841737 70.67423281672114 1 0 0
8108 0 1 0 3.662473635142892 33.92067292310351 70.65991480437788 1 0 0
7436 0 1 0 1.482447574071803 32.68960868967391 70.73899630200869 1 0 0
8110 0 1 0 3.6245637265296424 36.459046771272845 70.44205199627326 1 0 0
7439 0 1 0 0.752010562464546 36.3810530330443 70.61850716031742 1 0 0
8129 0 1 0 7.204624081577236 35.11571222552941 70.42249302085055 1 0 0
8117 0 1 0 5.080124351372158 33.92336800385533 70.7071528384783 1 0 0
8116 0 1 0 5.783098330887936 32.66150568252494 70.67468631220802 1 0 0
8118 0 1 0 5.754914932808768 35.127078153617106 70.52392146380133 1 0 0
8127 0 1 0 7.24595913877175 32.66855233413769 70.54409930685006 1 0 0
8128 0 1 0 7.9365347602960234 33.875140564275114 70.4216360480931 1 0 0
8130 0 1 0 7.947154354470165 36.33358519350913 70.277284860713 1 0 0
8119 0 1 0 5.041693962733519 36.38396336935989 70.46690056364865 1 0 0
8139 0 1 0 9.365605150867141 36.33287926686987 70.09806420877683 1 0 0
8147 0 1 0 11.430160507922347 32.60614470034429 70.04208289028357 1 0 0
8150 0 1 0 12.164655684020246 36.331851245638575 69.78924788642772 1 0 0
8137 0 1 0 9.365010825335258 33.82943413718481 70.34007246581186 1 0 0
8149 0 1 0 11.514537051888645 35.06216454769593 69.97946325552456 1 0 0
8136 0 1 0 10.031331101399703 32.644101632239924 70.29657414803869 1 0 0
8138 0 1 0 10.06075796910949 35.05537324607057 70.09384672181147 1 0 0
8148 0 1 0 12.210223782580242 33.816028598591416 69.9689204407853 1 0 0
7440 0 1 0 1.4697018035322975 37.6008833342755 70.57339086612538 1 0 0
7381 0 1 0 2.8520075151457336 37.61341859278023 70.45337102636545 1 0 0
7491 0 1 0 0.7474126698529652 38.855423014688085 70.57751396378205 1 0 0
7443 0 1 0 2.873714365451422 40.10753178970328 70.29324206806484 1 0 0
7492 0 1 0 1.491383336144963 40.082308058457336 70.47146454913472 1 0 0
8162 0 1 0 3.5951318961265843 38.9169263166858 70.37033594633908 1 0 0
7493 0 1 0 0.7658299062534875 41.342769022137155 70.48397635164478 1 0 0
8164 0 1 0 3.6036180893137595 41.29968205709881 70.21932628239661 1 0 0
8171 0 1 0 5.011408838516457 38.82803119796401 70.27151198438068 1 0 0
8120 0 1 0 5.745961201096744 37.57226981165326 70.29416782832986 1 0 0
8121 0 1 0 7.2204286188564915 37.55231190514828 70.20654834826976 1 0 0
8172 0 1 0 5.806248536932362 40.040297197521234 70.16577619210051 1 0 0
8183 0 1 0 7.231307650742856 40.003821087790676 70.02312446767641 1 0 0
8182 0 1 0 7.917083884290852 38.752671517473686 70.05081936547624 1 0 0
8184 0 1 0 7.890222857688152 41.29376234823587 69.87110069556695 1 0 0
8173 0 1 0 5.046494300201642 41.263395055632586 70.19993805067654 1 0 0
8191 0 1 0 9.368140082831808 38.777692130506466 69.97598318491178 1 0 0
8140 0 1 0 10.108707186735968 37.558655850793436 69.97229484101636 1 0 0
8141 0 1 0 11.513224306144442 37.53560105238454 69.8832963131963 1 0 0
8192 0 1 0 10.016920996632473 40.03672586599547 69.84436304496717 1 0 0
8202 0 1 0 12.198335867002243 38.7364484039191 69.64450920299089 1 0 0
8203 0 1 0 11.463035664349817 39.990084144548426 69.640227564505 1 0 0
8193 0 1 0 9.28849578569653 41.30762186746615 69.80569404976318 1 0 0
8204 0 1 0 12.176454081567831 41.29601085295002 69.56898204962575 1 0 0
7447 0 1 0 2.900605943616741 45.006771569148405 69.93364705078463 1 0 0
7496 0 1 0 1.4816625671763697 45.041824864790314 70.12077654058591 1 0 0
7495 0 1 0 0.8119372245623094 43.83345881589646 70.44481339501634 1 0 0
8166 0 1 0 3.620029940987892 43.800576847721956 70.08299123285917 1 0 0
7494 0 1 0 1.4755435607614957 42.60387384397535 70.36636650170834 1 0 0
7445 0 1 0 2.9245637140053935 42.568238023580705 70.20141909787094 1 0 0
8168 0 1 0 3.5960728687861416 46.22351302102125 69.64586360863842 1 0 0
8174 0 1 0 5.767645964364423 42.502555471948156 70.0624499758585 1 0 0
8185 0 1 0 7.1603801586396285 42.49348441425624 69.83028415437506 1 0 0
8186 0 1 0 7.82943483269512 43.695002921284136 69.58887899121426 1 0 0
8176 0 1 0 5.758475411981724 44.98787991234257 69.76046364820805 1 0 0
8187 0 1 0 7.198941461695421 44.969713394471455 69.68232835001945 1 0 0
8175 0 1 0 5.066618600011987 43.72983341662445 70.07656319984756 1 0 0
8188 0 1 0 7.896154525508579 46.20608747633572 69.39955081223259 1 0 0
8195 0 1 0 9.3159527625187 43.67289038705476 69.54202954465322 1 0 0
8194 0 1 0 10.033971518212335 42.509005357782584 69.60586355614826 1 0 0
8206 0 1 0 12.17202209348652 43.719506348737234 69.43672866466322 1 0 0
8205 0 1 0 11.429241762022796 42.5184894330935 69.58605242567559 1 0 0
8196 0 1 0 10.026487101765408 44.918794345676545 69.33770266210979 1 0 0
8207 0 1 0 11.466683942078147 44.927052984239964 69.23982328934034 1 0 0
8208 0 1 0 12.151394350135035 46.1365806972894 69.04964122845705 1 0 0
8197 0 1 0 9.310545110528073 46.15036498784663 69.26458810401981 1 0 0
7497 0 1 0 0.7692096397821635 46.25815459459527 70.00441437320126 1 0 0
7500 0 1 0 1.396287522426617 49.90075245778428 69.32400512952282 1 0 0
8170 0 1 0 3.5627267850054074 48.66256338955922 69.25134308865645 1 0 0
7441 0 1 0 2.8524242436402973 49.91750466423365 69.12719226309454 1 0 0
7449 0 1 0 2.9011100906532907 47.41061524992382 69.4623816758021 1 0 0
7499 0 1 0 0.6947043810490482 48.631385726097 69.47299857069883 1 0 0
7498 0 1 0 1.4652681295351717 47.47086454456512 69.62093936556496 1 0 0
8179 0 1 0 4.941176940522802 48.63595079246168 69.09609558641317 1 0 0
8177 0 1 0 5.029526263060829 46.236789841081645 69.59531549521667 1 0 0
8178 0 1 0 5.722088903742712 47.40838152823232 69.31528776798983 1 0 0
8190 0 1 0 7.890433282084693 48.619568203990745 68.9717902877234 1 0 0
8180 0 1 0 5.709046274632613 49.85157647560752 68.90085030461483 1 0 0
8181 0 1 0 7.126862711679592 49.86086837452138 68.90901271225378 1 0 0
8189 0 1 0 7.144620608379902 47.42780290302647 69.24423114607814 1 0 0
8199 0 1 0 9.330924131623382 48.63872987981592 68.87453053600822 1 0 0
8198 0 1 0 10.008250955679413 47.390912819347236 69.0064043410247 1 0 0
8210 0 1 0 12.142322448290205 48.671840109739776 68.72284272387034 1 0 0
8201 0 1 0 11.449223514188121 49.91163976329307 68.71512662222489 1 0 0
8200 0 1 0 10.043454359381643 49.88120776038942 68.78760807330472 1 0 0
8209 0 1 0 11.445103060387325 47.441365676976595 68.92041509216854 1 0 0
7551 0 1 0 0.6648801014221248 51.1438548586835 69.26419804819072 1 0 0
7553 0 1 0 0.6640656204528718 53.6356250742652 69.20247813394134 1 0 0
7552 0 1 0 1.361354307816267 52.38201511213789 69.22798245237239 1 0 0
8222 0 1 0 3.547582796227557 51.10815103541941 69.03207704503923 1 0 0
7503 0 1 0 2.8070789771003923 52.33708866209772 69.07899916104068 1 0 0
8224 0 1 0 3.5619126582653733 53.56398521284485 68.97836761388854 1 0 0
7505 0 1 0 2.8535612845806435 54.83554912971226 69.04087341932214 1 0 0
7554 0 1 0 1.420391326856714 54.84135921096439 69.15866249473656 1 0 0
8242 0 1 0 7.87075553438698 51.16485900269282 68.81673330698268 1 0 0
8231 0 1 0 5.004606249130577 51.121859383627815 68.82517751114386 1 0 0
8233 0 1 0 5.013499666551348 53.58722137358002 68.78657742445468 1 0 0
8244 0 1 0 7.825762597832764 53.559141423412136 68.80820265185882 1 0 0
8232 0 1 0 5.735572904724729 52.32637578175387 68.79350700987209 1 0 0
8243 0 1 0 7.1276240396175865 52.32963101672643 68.83229302193452 1 0 0
8245 0 1 0 7.115577955549578 54.80537274335782 68.90425906656156 1 0 0
8234 0 1 0 5.674943633150393 54.795944903137034 68.91040839929897 1 0 0
8252 0 1 0 9.996745154909961 52.35453004165596 68.76982348250384 1 0 0
8251 0 1 0 9.253184102202718 51.14557058670856 68.79811829468524 1 0 0
8264 0 1 0 12.12513455636491 53.641951970248954 68.71897276794672 1 0 0
8253 0 1 0 9.285024332753144 53.609988957248234 68.7766440629806 1 0 0
8263 0 1 0 11.413627175904905 52.38799262337421 68.75711043521511 1 0 0
8262 0 1 0 12.117913470051233 51.164346556564624 68.73710768521448 1 0 0
8254 0 1 0 9.979580491683498 54.82868813450998 68.81734327650302 1 0 0
8265 0 1 0 11.40812002794301 54.90876876120048 68.78241565895595 1 0 0
7555 0 1 0 0.7411577529037142 56.11048504750059 69.12661551770927 1 0 0
7557 0 1 0 0.7291245972809615 58.5688555078055 69.03301058514144 1 0 0
7556 0 1 0 1.4722198855469697 57.38055096269919 69.05369316715147 1 0 0
7507 0 1 0 2.90958372121219 57.32517223874979 68.97323649264891 1 0 0
8226 0 1 0 3.5680870864001903 56.06196539747775 69.04877738954711 1 0 0
8228 0 1 0 3.561397175395373 58.590532295526906 68.8076459530889 1 0 0
7558 0 1 0 1.4716123292226453 59.834682810002406 68.96544675037029 1 0 0
7509 0 1 0 2.8796951555075 59.82494990546436 68.89545314386464 1 0 0
8235 0 1 0 4.992840788012898 56.03467966393199 68.97436211185736 1 0 0
8247 0 1 0 7.070155283871419 57.29574167239942 68.96369470210674 1 0 0
8236 0 1 0 5.668662467387804 57.34066028992887 68.93832369403866 1 0 0
8246 0 1 0 7.817754163703607 56.0486934966771 68.92941132384024 1 0 0
8248 0 1 0 7.7638837736127675 58.54091433037396 68.92671873401385 1 0 0
8237 0 1 0 4.9583756188805745 58.62885598674777 69.0098696040699 1 0 0
8249 0 1 0 7.073878019799507 59.824143505535524 69.01633623458856 1 0 0
8238 0 1 0 5.648765928048655 59.846937923833025 69.01344745217064 1 0 0
8255 0 1 0 9.234943494089146 56.112838009991805 68.82539406135565 1 0 0
8267 0 1 0 11.394529007541577 57.33894281584941 68.83392877403232 1 0 0
8268 0 1 0 12.106775656579117 58.53692979292036 68.95720283137398 1 0 0
8257 0 1 0 9.24688393279286 58.552354901595734 68.83861860464273 1 0 0
8256 0 1 0 9.922466357506451 57.33328898051477 68.83587017185062 1 0 0
8266 0 1 0 12.133549357086592 56.13502584464994 68.81299453012922 1 0 0
8258 0 1 0 9.918783790043387 59.83231176852127 68.84972992304023 1 0 0
8269 0 1 0 11.358427663505225 59.80125699300505 68.95321844990731 1 0 0
8230 0 1 0 3.546484778444784 61.11432546428423 68.8708729708333 1 0 0
7559 0 1 0 0.8090173807906988 61.08151131667609 68.97231264779802 1 0 0
7560 0 1 0 1.4449055653805933 62.337809352350305 68.88787366536853 1 0 0
7611 0 1 0 0.7361663636934659 63.54597989886268 68.87684254006938 1 0 0
7501 0 1 0 2.860762017472566 62.343453433994824 68.91344172869545 1 0 0
8282 0 1 0 3.5653064668093593 63.56743659524411 68.77378600820128 1 0 0
8239 0 1 0 4.9988180335382895 61.15390493837132 68.90588686579498 1 0 0
8241 0 1 0 7.169724964267635 62.32526581745053 68.97552506222408 1 0 0
8250 0 1 0 7.84030605131837 61.03207846631177 68.91718570738311 1 0 0
8302 0 1 0 7.913241525091124 63.55039693853374 68.87512586904322 1 0 0
8240 0 1 0 5.724209190948105 62.32968503633962 68.95314419470503 1 0 0
8291 0 1 0 4.99575124072728 63.52599084437625 68.74250010775938 1 0 0
8261 0 1 0 11.460837684976466 62.3224148627236 68.87631739176426 1 0 0
8259 0 1 0 9.23835674179855 61.05025775638231 68.9392480786723 1 0 0
8260 0 1 0 10.0208805160797 62.24426420069458 68.91845290410903 1 0 0
8270 0 1 0 12.113911648566802 61.05609039762979 68.94043799259487 1 0 0
8311 0 1 0 9.343880917606691 63.53990717215441 68.88996586667216 1 0 0
8322 0 1 0 12.156360208919972 63.56595056840043 68.79111348114851 1 0 0
7613 0 1 0 0.7337645594889918 66.00227945408729 68.87887745258502 1 0 0
7612 0 1 0 1.4458492235430571 64.7829922308465 68.88596829273243 1 0 0
7615 0 1 0 0.6697521282750338 68.49641182043744 68.92970090150045 1 0 0
7563 0 1 0 2.846020013930429 64.81808677258852 68.7971171769318 1 0 0
7565 0 1 0 2.8053692394929044 67.23124286302765 68.84409550893032 1 0 0
7614 0 1 0 1.3744341600358336 67.22515505033937 68.91133723076517 1 0 0
8284 0 1 0 3.5264161248837205 66.02148468494912 68.82005449985004 1 0 0
8286 0 1 0 3.517955133926129 68.4568169528212 68.72203494370817 1 0 0
8304 0 1 0 7.850831482579238 65.98395924527763 68.77438861442762 1 0 0
8305 0 1 0 7.122214269625876 67.22279688874417 68.69971384226332 1 0 0
8306 0 1 0 7.785502918880355 68.44541246054813 68.70761208089222 1 0 0
8292 0 1 0 5.744363659228553 64.81515927099679 68.74559580448408 1 0 0
8303 0 1 0 7.16770118162537 64.75567823967864 68.87427566282936 1 0 0
8294 0 1 0 5.67261311955068 67.2778912168213 68.72625082704039 1 0 0
8293 0 1 0 4.971262485602507 66.01366166063342 68.70050809101389 1 0 0
8295 0 1 0 4.956773852862428 68.5023943174799 68.69124407625578 1 0 0
8313 0 1 0 9.250442395826088 65.98320483205346 68.7874486459742 1 0 0
8312 0 1 0 10.01905330911306 64.77956964005256 68.74067203004437 1 0 0
8323 0 1 0 11.429623491587632 64.78898698481213 68.73872660837266 1 0 0
8324 0 1 0 12.111388526806303 66.05780106868089 68.5872328675578 1 0 0
8314 0 1 0 9.979687435259915 67.2508336903361 68.79863067602965 1 0 0
8325 0 1 0 11.37170989594299 67.3062106539459 68.63549840600024 1 0 0
8315 0 1 0 9.188812272630416 68.45276839836858 68.80550613150436 1 0 0
8326 0 1 0 12.110492569031793 68.51755210510164 68.52571562235299 1 0 0
7567 0 1 0 2.8313488697639997 69.69873457301462 68.75501888473812 1 0 0
7618 0 1 0 1.3841581933501221 72.17749553629629 68.93302281964019 1 0 0
7616 0 1 0 1.3787197346800892 69.73047576938487 68.85422631776002 1 0 0
7617 0 1 0 0.7013541776843343 70.98292582975814 68.85295889163301 1 0 0
7569 0 1 0 2.846994145432405 72.14547827223274 68.89005090119869 1 0 0
8288 0 1 0 3.5375222159390107 70.8834654483074 68.73416339878959 1 0 0
7619 0 1 0 0.7056517059251474 73.4208704123687 69.00923570198957 1 0 0
8290 0 1 0 3.547999790869746 73.35916002650848 68.9140700062683 1 0 0
8307 0 1 0 7.052136012615919 69.69164001740546 68.74242657207519 1 0 0
8296 0 1 0 5.62910742742987 69.7102725424787 68.67469168331809 1 0 0
8297 0 1 0 4.926527401160688 70.95738859930348 68.69690664962847 1 0 0
8298 0 1 0 5.647710630089522 72.1615544469813 68.81539036024247 1 0 0
8308 0 1 0 7.7793226101804125 70.98241644351715 68.74194062283742 1 0 0
8309 0 1 0 7.073172523255958 72.19243673213775 68.70718926299986 1 0 0
8299 0 1 0 4.991107960446132 73.41747427417161 68.91817653274143 1 0 0
8310 0 1 0 7.803706252369905 73.40804783648139 68.82873665826955 1 0 0
8327 0 1 0 11.325163876967055 69.71778819363949 68.51792396644873 1 0 0
8319 0 1 0 9.280077690622058 73.42131428572392 68.71330284137116 1 0 0
8330 0 1 0 12.115284554604413 73.45213279134035 68.56226428134741 1 0 0
8328 0 1 0 12.05817847459897 70.95604918141997 68.52402452132904 1 0 0
8316 0 1 0 9.890605415816612 69.73140152717808 68.6353023068818 1 0 0
8317 0 1 0 9.222125434892822 70.96727253260859 68.69902037573692 1 0 0
8329 0 1 0 11.363882819743578 72.1909873265185 68.5125810380981 1 0 0
8318 0 1 0 9.94682854429883 72.20845067509877 68.60730537307498 1 0 0
7561 0 1 0 2.842162650508399 74.65246246671575 69.01112349898034 1 0 0
7620 0 1 0 1.3960894924793128 74.66368767034318 69.0083629956615 1 0 0
7671 0 1 0 0.7230394637059072 75.87772461646425 68.99206437100335 1 0 0
7672 0 1 0 1.423385532870299 77.1189387667482 68.98481854400289 1 0 0
7623 0 1 0 2.833387027183731 77.06456558883983 68.85619202355514 1 0 0
8342 0 1 0 3.5710953397333083 75.8234365147812 68.98500649015925 1 0 0
8344 0 1 0 3.5160241539726296 78.31746576207237 68.73259113794174 1 0 0
7673 0 1 0 0.7612425086446926 78.386186232222 68.92072614974182 1 0 0
8301 0 1 0 7.1644326470354605 74.64961333250463 68.9203765145126 1 0 0
8351 0 1 0 5.0067195030777425 75.84265015934078 68.95138126280767 1 0 0
8300 0 1 0 5.720153885176224 74.65069775327511 68.99012539906413 1 0 0
8352 0 1 0 5.680657758044746 77.12014172947588 68.86734274587045 1 0 0
8362 0 1 0 7.843296892461608 75.91305102214865 68.95612827312888 1 0 0
8363 0 1 0 7.121017129185528 77.16506708104647 68.94516486399108 1 0 0
8353 0 1 0 4.901821231849045 78.37061902976316 68.6646959125682 1 0 0
8364 0 1 0 7.809328201024128 78.4366492097793 68.78494088171678 1 0 0
8321 0 1 0 11.410034719556627 74.65224217747404 68.87721271980017 1 0 0
8383 0 1 0 11.425318818792807 77.16589851573515 68.91139599115161 1 0 0
8371 0 1 0 9.306650758297263 75.90768834510519 68.93948920873919 1 0 0
8320 0 1 0 10.022270945785916 74.65037071963621 68.8984341377421 1 0 0
8372 0 1 0 10.021413699395984 77.17524648481854 68.91951265233077 1 0 0
8382 0 1 0 12.133323772450913 75.89362438374756 68.83940670095544 1 0 0
8373 0 1 0 9.301981918371762 78.44558754591152 68.76634862684737 1 0 0
8384 0 1 0 12.097383122797257 78.4105383948068 68.84359779568393 1 0 0
7674 0 1 0 1.4415615594026887 79.60166118474262 68.94032750473585 1 0 0
8346 0 1 0 3.4932965708803616 80.80635340104607 68.58122648512096 1 0 0
7625 0 1 0 2.8509029352435897 79.56469340851208 68.75442179201595 1 0 0
7675 0 1 0 0.7387191962021139 80.8373709677937 68.8591232201593 1 0 0
7676 0 1 0 1.406063604933147 82.0213366828061 68.73245881834059 1 0 0
7627 0 1 0 2.7937335538118226 82.06449435560073 68.62568836467064 1 0 0
8348 0 1 0 3.49927074685463 83.24864532895039 68.55079077573043 1 0 0
8355 0 1 0 4.928622866647419 80.76767561163594 68.41837827472519 1 0 0
8354 0 1 0 5.661871842829437 79.59124680982382 68.49573378425009 1 0 0
8365 0 1 0 7.085552478915258 79.62005487188364 68.57002143870417 1 0 0
8366 0 1 0 7.824462583970436 80.82588928228168 68.46263490887225 1 0 0
8356 0 1 0 5.6246298253260845 81.99492094685918 68.29353567486639 1 0 0
8367 0 1 0 7.103320313196393 82.04900465227766 68.29909397282371 1 0 0
8374 0 1 0 9.94218394926307 79.67815474314229 68.61655687201288 1 0 0
8385 0 1 0 11.357049612200367 79.64147407844466 68.70939484932714 1 0 0
8386 0 1 0 12.062543406585252 80.85107137163423 68.72063904531453 1 0 0
8376 0 1 0 9.955535321628636 82.09118072954723 68.42817103240155 1 0 0
8387 0 1 0 11.399623767689818 82.1147304942896 68.50979128480934 1 0 0
8375 0 1 0 9.262984656815275 80.86546947915483 68.4952159888571 1 0 0
8388 0 1 0 12.122385849951005 83.32241815911613 68.35422743348389 1 0 0
8350 0 1 0 3.5176186691518057 85.78502732999391 68.46845141327941 1 0 0
7621 0 1 0 2.8522906299052257 87.07922978364577 68.5068807384459 1 0 0
7629 0 1 0 2.7842350872177337 84.4955838911662 68.56571181424867 1 0 0
7678 0 1 0 1.3713887288111346 84.51440404989883 68.57838064897153 1 0 0
7677 0 1 0 0.7124904828549478 83.23768044615242 68.74223406290473 1 0 0
7679 0 1 0 0.6923096326603043 85.75328426986941 68.56344889185071 1 0 0
7680 0 1 0 1.4009637005144682 87.02004859391519 68.56299106285816 1 0 0
8357 0 1 0 4.946607330230531 83.25010927333079 68.39460346418885 1 0 0
8358 0 1 0 5.672313516776415 84.50234972064008 68.3402301950826 1 0 0
8359 0 1 0 4.905579891135233 85.79265277698515 68.47093867760115 1 0 0
8369 0 1 0 7.160975985053428 84.52260814880853 68.19965377542951 1 0 0
8370 0 1 0 7.772877980850464 85.799562751203 68.23671457822132 1 0 0