LAMMPS (4 Feb 2025)
OMP_NUM_THREADS environment is not set. Defaulting to 1 thread. (src/comm.cpp:99)
  using 1 OpenMP thread(s) per MPI task
# LAMMPS script for running NVT simulation

units       metal
dimension   3
boundary    p p p
atom_style  full
atom_modify map yes

newton      on

read_data   ../start.lammps-data
Reading data file ...
  orthogonal box = (0 0 0) to (153.77699 147.97198 151.07317)
  16 by 8 by 8 MPI processor grid
  reading atoms ...
  11640 atoms
  reading velocities ...
  11640 velocities
Finding 1-2 1-3 1-4 neighbors ...
  special bond factors lj:    0        0        0       
  special bond factors coul:  0        0        0       
     0 = max # of 1-2 neighbors
     0 = max # of 1-3 neighbors
     0 = max # of 1-4 neighbors
     1 = max # of special neighbors
  special bonds CPU = 5.917 seconds
  read_data CPU = 6.189 seconds

pair_style  symmetrix/mace
pair_coeff  * * ../../../00-common/models/ch2o-dens-inv_swa-1-6-8.json C H O
Loading MACE model from '../../../00-common/models/ch2o-dens-inv_swa-1-6-8.json' ... success
  mapping LAMMPS type 1 (C) to MACE type 1
  mapping LAMMPS type 2 (H) to MACE type 0
  mapping LAMMPS type 3 (O) to MACE type 2

variable t equal step

group graphene type 1
8640 atoms in group graphene
group H2O type 2 3
3000 atoms in group H2O

thermo 1000

######### NVT equilibration for 80 ps #############

dump DUMP1 all atom 100 nvt_equi.lammpstrj
timestep 0.001
fix NVT1 graphene nvt temp 300 300 0.1
fix NVT2 H2O nvt temp 300 300 0.1
run 80000
Neighbor list info ...
  update: every = 1 steps, delay = 0 steps, check = yes
  max neighbors/atom: 2000, page size: 100000
  master list distance cutoff = 8
  ghost atom cutoff = 8
  binsize = 4, bins = 39 37 38
  1 neighbor lists, perpetual/occasional/extra = 1 0 0
  (1) pair symmetrix/mace, perpetual
      attributes: full, newton on
      pair build: full/bin
      stencil: full/bin/3d
      bin: standard
Per MPI rank memory allocation (min/avg/max) = 5.921 | 6.239 | 8.661 Mbytes
   Step          Temp          E_pair         E_mol          TotEng         Press     
         0   78.173347     -1810212        0             -1810094.4      556.11056    
      1000   84.258206     -1810205.3      0             -1810078.5      383.77697    
      2000   183.47093     -1810092.4      0             -1809816.4     -725.50401    
      3000   304.07036     -1809968.8      0             -1809511.4     -1002.1545    
      4000   301.63356     -1809940.7      0             -1809486.9     -1169.7962    
      5000   300.10787     -1809949.8      0             -1809498.3     -910.50681    
      6000   306.67425     -1809939.2      0             -1809477.8     -840.11262    
      7000   299.94999     -1809936.6      0             -1809485.3     -811.21458    
      8000   294.86168     -1809933.2      0             -1809489.6     -753.31668    
      9000   307.10444     -1809923.9      0             -1809461.8     -856.47676    
     10000   292.45268     -1809934.8      0             -1809494.8     -680.1043     
     11000   296.47875     -1809927.5      0             -1809481.4     -747.96605    
     12000   309.01114     -1809933.5      0             -1809468.6     -636.55681    
     13000   305.00618     -1809923.4      0             -1809464.5     -595.52821    
     14000   291.95217     -1809927.6      0             -1809488.4     -480.89854    
     15000   292.84954     -1809926.3      0             -1809485.7     -453.92862    
     16000   305.74581     -1809920.6      0             -1809460.7     -444.30071    
     17000   295.88137     -1809933.6      0             -1809488.5     -329.82274    
     18000   297.68333     -1809926.8      0             -1809479       -349.22485    
     19000   300.11435     -1809927.6      0             -1809476.1     -336.42399    
     20000   301.3437      -1809929        0             -1809475.6     -267.05303    
     21000   293.78221     -1809928.6      0             -1809486.6     -183.24639    
     22000   302.78119     -1809925.8      0             -1809470.2     -205.2678     
     23000   298.73517     -1809923.8      0             -1809474.3     -190.63023    
     24000   296.91454     -1809922.3      0             -1809475.6     -184.83317    
     25000   299.30781     -1809924.1      0             -1809473.8     -183.20744    
     26000   302.7459      -1809931.1      0             -1809475.6     -240.12077    
     27000   301.35654     -1809930.3      0             -1809477       -107.6395     
     28000   297.10271     -1809925.6      0             -1809478.6     -39.167595    
     29000   301.88178     -1809928.5      0             -1809474.3     -15.097003    
     30000   300.12734     -1809938.4      0             -1809486.8     -55.436024    
     31000   301.43346     -1809932.4      0             -1809478.9     -57.401945    
     32000   301.96719     -1809925.2      0             -1809470.9     -72.320096    
     33000   299.81849     -1809934.2      0             -1809483.1     -2.6859309    
     34000   302.95568     -1809930.3      0             -1809474.5     -0.62384556   
     35000   297.69317     -1809925.6      0             -1809477.7      5.7064842    
     36000   300.04228     -1809936.4      0             -1809485       -1.2558589    
     37000   302.28158     -1809933.1      0             -1809478.3     -67.781569    
     38000   300.45475     -1809931.7      0             -1809479.7      2.8872425    
     39000   295.21065     -1809927.5      0             -1809483.3      83.165642    
     40000   301.17117     -1809926.8      0             -1809473.7     -23.306104    
     41000   299.4804      -1809943.6      0             -1809493.1      72.262733    
     42000   302.06511     -1809930.1      0             -1809475.6      71.184062    
     43000   301.22845     -1809930.6      0             -1809477.4      95.416006    
     44000   296.42056     -1809931.4      0             -1809485.4     -17.863048    
     45000   302.9585      -1809934.2      0             -1809478.4      3.4547392    
     46000   299.53106     -1809929        0             -1809478.4      9.6678626    
     47000   299.11692     -1809933.1      0             -1809483.1      67.700438    
     48000   300.52175     -1809929.9      0             -1809477.8      103.95999    
     49000   297.99863     -1809935.3      0             -1809487        94.105202    
     50000   299.41623     -1809935.2      0             -1809484.7      94.49598     
     51000   304.06818     -1809931.9      0             -1809474.5      61.540807    
     52000   299.04221     -1809935.6      0             -1809485.7      60.581513    
     53000   303.05004     -1809925.2      0             -1809469.3      74.344024    
     54000   300.97571     -1809936.7      0             -1809483.8      61.252178    
     55000   300.9367      -1809933        0             -1809480.3      70.904334    
     56000   299.43806     -1809939.1      0             -1809488.7      43.813661    
     57000   301.02083     -1809930        0             -1809477.1      59.993046    
     58000   298.91788     -1809932.8      0             -1809483.1      95.045428    
     59000   299.67024     -1809937.4      0             -1809486.5      74.88765     
     60000   301.11248     -1809931.6      0             -1809478.6      100.32949    
     61000   299.68526     -1809938.6      0             -1809487.8      59.539732    
     62000   301.05155     -1809936.7      0             -1809483.8      0.28449103   
     63000   303.4341      -1809936.4      0             -1809479.9      32.909212    
     64000   299.28565     -1809936.2      0             -1809486        55.265272    
     65000   299.24648     -1809929.6      0             -1809479.4      59.816834    
     66000   301.02297     -1809931.8      0             -1809478.9      61.435749    
     67000   301.05228     -1809934.6      0             -1809481.7      68.606955    
     68000   302.9065      -1809931.5      0             -1809475.8      115.34803    
     69000   304.53344     -1809938.1      0             -1809479.9      72.673213    
     70000   299.54669     -1809931        0             -1809480.3      64.298696    
     71000   300.21222     -1809934.8      0             -1809483.1      52.440303    
     72000   299.14657     -1809931        0             -1809481        82.55573     
     73000   296.69119     -1809934.1      0             -1809487.7      62.913227    
     74000   299.7409      -1809940.4      0             -1809489.4      77.590758    
     75000   299.87097     -1809928.9      0             -1809477.7      115.32722    
     76000   301.71261     -1809929.1      0             -1809475.1      87.645792    
     77000   297.15503     -1809930.5      0             -1809483.4      86.748037    
     78000   299.8602      -1809929.4      0             -1809478.2      50.284683    
     79000   301.8888      -1809932.3      0             -1809478.1      61.402384    
     80000   301.02939     -1809929.3      0             -1809476.5      48.874455    
Loop time of 58136.6 on 1024 procs for 80000 steps with 11640 atoms

Performance: 0.119 ns/day, 201.863 hours/ns, 1.376 timesteps/s, 16.017 katom-step/s
100.0% CPU use with 1024 MPI tasks x 1 OpenMP threads

MPI task timing breakdown:
Section |  min time  |  avg time  |  max time  |%varavg| %total
---------------------------------------------------------------
Pair    | 1258.8     | 5570.2     | 25778      |6528.9 |  9.58
Bond    | 0.0047452  | 0.007813   | 0.015928   |   2.0 |  0.00
Neigh   | 0.058466   | 0.15167    | 1.2824     |  42.8 |  0.00
Comm    | 26.711     | 2011.1     | 7331       |3675.9 |  3.46
Output  | 0.99744    | 5.6693     | 10.753     | 121.7 |  0.01
Modify  | 28663      | 50542      | 56779      |2668.8 | 86.94
Other   |            | 7.923      |            |       |  0.01

Nlocal:        11.3672 ave         207 max           0 min
Histogram: 884 2 36 75 7 3 1 3 6 7
Nghost:        90.6533 ave        1330 max           0 min
Histogram: 784 44 152 8 12 7 3 4 5 5
Neighs:              0 ave           0 max           0 min
Histogram: 1024 0 0 0 0 0 0 0 0 0
FullNghs:       1220.9 ave       38332 max           0 min
Histogram: 884 112 7 2 2 2 2 4 5 4

Total # of neighbors = 1250206
Ave neighs/atom = 107.40601
Ave special neighs/atom = 0
Neighbor list builds = 3771
Dangerous builds = 0

write_restart nvt_equi.restart.*
System init for write_restart ...
write_data nvt_equi_final.lammps-data
System init for write_data ...

Total wall time: 16:09:23
