(written by ASE)

17640 atoms
3 atom types

0.0      154.00799999999998  xlo xhi
0.0      148.19999999999999  ylo yhi
0.0      151.07609208607428  zlo zhi

Masses

     1      12.010999996910238 # C
     2      1.0079999997406979 # H
     3      15.998999995884349 # O

Atoms # full

     1   0   1   0.0      20.585410944623458      3.2821941889285422       20.51102548925773
     2   0   1   0.0      8.5147754933892177     -7.8677321062426762      21.783070217097659
     3   0   1   0.0      20.547707255792119     -6.5780956842489813      20.777519263917839
     4   0   1   0.0      8.4902841018919464     -5.3448451118448776      21.535540899350504
     5   0   1   0.0      20.565482361345897     -4.1242627989224498      20.697468923421436
     6   0   1   0.0      8.4578888551139997     -2.9095260346739189      21.273990543723279
     7   0   1   0.0      20.622528269803677     -1.6518291723843406      20.771224812630095
     8   0   1   0.0      8.4531343081441239    -0.40562810017246964      21.221164443523161
     9   0   1   0.0       20.57823921672264     0.86382567539495425      20.792257293871117
    10   0   1   0.0      8.4487378740645003      2.0414456710054125      21.087891996087585
    11   0   1   0.0      9.8913963734306396     -7.8437353821168196      21.625636942905452
    12   0   1   0.0      10.631098191359007     -6.6090357861174924      21.542749138564144
    13   0   1   0.0      9.9464350865193136     -5.3234089644210494       21.54170277368295
    14   0   1   0.0      10.605673877444104     -4.1096448227858078      21.410671447139698
    15   0   1   0.0       9.859120547060213     -2.9102370700150364      21.269173363791701
    16   0   1   0.0      10.539788349086372     -1.6835181617642843      21.245699923757549
    17   0   1   0.0      9.9094290897207706    -0.45483699128331695      21.250431869383238
    18   0   1   0.0      10.650908650948722     0.79752911630637546      21.235933153106203
    19   0   1   0.0      9.8643535429818723      2.0538700420530009      21.140084594898269
    20   0   1   0.0      10.547130030224759      3.2768513827102494      21.070790751336904
    21   0   1   0.0      12.027123654993964      3.3067420983577511       21.14820158639149
    22   0   1   0.0      12.756829741749591     -7.8418033909528342      21.462965998062057
    23   0   1   0.0       12.06356347439619     -6.6129528066333396      21.470996224765322
    24   0   1   0.0      12.711087211885951     -5.3703076224127599      21.350807786985186
    25   0   1   0.0      12.051060917715544     -4.0663099925310844      21.389167902972499
    26   0   1   0.0      12.745878068343863     -2.8180647969658672      21.406871680660547
    27   0   1   0.0      11.999213755294599     -1.6456517023675599      21.292912939476288
    28   0   1   0.0      12.753388971787816    -0.45777733424412764      21.141311311863806
    29   0   1   0.0      12.087128155934678     0.80454896159776168      21.099023905789963
    30   0   1   0.0      12.759127783282128       2.082089145270154      21.057294245718076
    31   0   1   0.0      14.210594882202329     -7.8255874420938758      21.302903141915568
    32   0   1   0.0      14.913171192073831     -6.5904549059139068       21.21094371597778
    33   0   1   0.0      14.158950181432109     -5.3496682419692005       21.33169511322739
    34   0   1   0.0      14.888942767561915     -4.1027852081874734      21.261843095456644
    35   0   1   0.0      14.182142283498692     -2.8419427637698176      21.369742786554522
    36   0   1   0.0      14.888543898776391     -1.6264794117887547      21.125019145382822
    37   0   1   0.0      14.184219377880771    -0.40384480380695242      21.132860629106514
    38   0   1   0.0      14.856117954288736     0.85151798905569276      21.110776591542784
    39   0   1   0.0      14.195700632601808      2.1040736518460874      21.059638014483689
    40   0   1   0.0      14.891837191515609      3.3203424153574042      21.125516761212911
    41   0   1   0.0      16.315928528769266      3.3291504022327523      21.054400431610276
    42   0   1   0.0      17.028331438984996      -7.827135560701465      20.967402666415019
    43   0   1   0.0      16.293637373609066     -6.5475637979359362      21.094942112254273
    44   0   1   0.0      16.957183587067949     -5.2733923056800691      21.022815752464968
    45   0   1   0.0      16.278089450616527     -4.0460271280711648      21.106980232652045
    46   0   1   0.0      16.988584155990527     -2.8179567668234227      20.951909465479339
    47   0   1   0.0      16.309933633780133      -1.598760410903175      20.969246774010518
    48   0   1   0.0      17.032477143815171    -0.41012418130436573      20.942025719519865
    49   0   1   0.0      16.305485767635076      0.8555631356895127      21.023563056549662
    50   0   1   0.0      16.983258326457356      2.0756839747689133      20.971812988867669
    51   0   1   0.0      18.469703853045548     -7.8655750012845536      20.934716778301496
    52   0   1   0.0       19.15230426941401     -6.5794394741320215      20.925759194827243
    53   0   1   0.0      18.404464837650114     -5.3194507544133112      21.008842670909512
    54   0   1   0.0      19.170844481109963     -4.1374898295999927      20.832417221872475
    55   0   1   0.0      18.429093478609477     -2.8769735471674167      20.800591157794155
    56   0   1   0.0        19.2026990258727     -1.6380309562078672      20.823075708820024
    57   0   1   0.0      18.510230640165307     -0.4051599519976351      20.918412726435594
    58   0   1   0.0      19.173650725886681     0.87852869314032844      20.911479017294926
    59   0   1   0.0      18.431778340074562      2.1011565568641091      20.943394862956296
    60   0   1   0.0      19.199017178681459      3.3527555836540843      20.705725870960791
    61   0   1   0.0      20.611582845066419      15.590518527027493      21.055064707120966
    62   0   1   0.0      8.4681495718345143      4.4819288435007207      20.914134746581297
    63   0   1   0.0       20.54848579563097      5.7444764067288627      20.449609455085529
    64   0   1   0.0      8.4868703995320196      6.9399128126564014      20.900680576787227
    65   0   1   0.0      20.540786452692053      8.2490390245570708      20.341604641384329
    66   0   1   0.0      8.4559862927269371      9.4501568207451179      21.225093994000012
    67   0   1   0.0      20.560788618346411      10.701642068855676      20.574480346228437
    68   0   1   0.0       8.513896507741201      11.924609902556016      21.331927003535444
    69   0   1   0.0      20.613595180732734      13.135795299044355       20.86365959481352
    70   0   1   0.0      8.5034601519948705       14.39402161578014      21.396452651725838
    71   0   1   0.0      9.9115440858182353      4.5322311496981653      21.052206303927928
    72   0   1   0.0      10.634000514508314      5.7888317930755164      20.914122820063266
    73   0   1   0.0      9.9107859134386338      7.0025986582595818      20.948764796568053
    74   0   1   0.0      10.568850479768724       8.250216633019507      20.998186288225025
    75   0   1   0.0      9.9075890835678528      9.4796030623342364      21.139986482305275
    76   0   1   0.0      10.611562849567768      10.733082586410957      21.176899754589837
    77   0   1   0.0      9.9262634168950132      11.952362529278375      21.313392324356329
    78   0   1   0.0      10.696872353299502      13.200542353524634      21.218324257937891
    79   0   1   0.0      9.9233776338367381      14.424794124447411      21.349743654247423
    80   0   1   0.0      10.602505828262297      15.624944085438777      21.357921858586522
    81   0   1   0.0      11.994654957925656      15.678615094067537       21.14172826795803
    82   0   1   0.0       12.75138662786623      4.5161669780074289      21.054257170238103
    83   0   1   0.0      12.005165618107386      5.7447730674462418        21.0066234371128
    84   0   1   0.0      12.735343759888886      7.0052913197162727      20.989258638277185
    85   0   1   0.0      12.022298307965555      8.2204658497631353      20.926845906968836
    86   0   1   0.0       12.73594734003917      9.4989147732285346      21.079975147176608
    87   0   1   0.0      12.031261747777924      10.722635633051318      21.090267140485832
    88   0   1   0.0      12.793378205184059      11.935478083504682      21.086513997467346
    89   0   1   0.0      12.063791750683762      13.170338918660567      21.133843376756115
    90   0   1   0.0      12.783205108927135      14.431953474435355      21.080593560043603
    91   0   1   0.0      14.165190364848586      4.5477176107876662      21.102504422969925
    92   0   1   0.0        14.8907682378772      5.8037321896708969      20.988825233955207
    93   0   1   0.0       14.15826365004061      7.0595263055934492      20.976457273948647
    94   0   1   0.0      14.852169306762221      8.3020887756523294      20.938223065299162
    95   0   1   0.0      14.140097125029763        9.51215072058862      20.955843314866947
    96   0   1   0.0      14.911533120566013      10.718901658138414      20.965156220253039
    97   0   1   0.0      14.203160717933509        11.9282640788379      20.900174874655974
    98   0   1   0.0      14.917640670414038      13.132901172227328      20.857925524484575
    99   0   1   0.0      14.187630496705626      14.387523526075253      21.042190464789588
   100   0   1   0.0      14.853829301052643      15.619455968667657       21.15002636782167
   101   0   1   0.0      16.325044286864564      15.661763180550295      21.183054931231748
   102   0   1   0.0      17.066687483997789      4.5580963404260242      20.915529576490105
   103   0   1   0.0      16.337802640160973       5.795355491015342      20.949783457513497
   104   0   1   0.0       17.05547493104191      7.0333161236070119      20.799617816020266
   105   0   1   0.0       16.30055823757688      8.2581185642342625      20.745547791572335
   106   0   1   0.0      16.978877671652477      9.4947254485642887      20.747249738737981
   107   0   1   0.0      16.308665911722375      10.759398375061373      20.886892707524584
   108   0   1   0.0      17.040998475715146      11.956487413093495      20.826581836454491
   109   0   1   0.0      16.370664620241467       13.23518164741253      20.902161525602892
   110   0   1   0.0      17.059887290807126      14.481033277289884      20.922280013677266
   111   0   1   0.0      18.474358779986328      4.5560675756556357      20.706286201573299
   112   0   1   0.0      19.158451762635611      5.7851746407193341       20.55578154371544
   113   0   1   0.0      18.455153414139367       7.016380673649933      20.568452381001801
   114   0   1   0.0      19.104673588219249      8.2562213072883779      20.472486111250433
   115   0   1   0.0      18.420235755295828      9.4567398684306934      20.579827671987303
   116   0   1   0.0      19.116957961976563      10.662006464165357      20.634755267800927
   117   0   1   0.0      18.474058544010084      11.928274894289467      20.827662793044894
   118   0   1   0.0      19.164166627906422      13.178270800955765      20.847409154704362
   119   0   1   0.0      18.459526949546746      14.436118765017357      20.899933418880437
   120   0   1   0.0      19.211340909481716      15.633775264534757      21.143271868642788
   121   0   1   0.0      20.570159948395165      27.999972722374252       21.37763294755052
   122   0   1   0.0      8.4929516558049318      16.872919155056842       21.45805854900745
   123   0   1   0.0      20.651465020519172      18.099717568001214      21.164080408282601
   124   0   1   0.0      8.4463344018886612      19.357101716699965      21.552525889619993
   125   0   1   0.0       20.59051873473776      20.555725238530329      21.182206261761124
   126   0   1   0.0      8.5017833318657576      21.806525409320127      21.862672210822211
   127   0   1   0.0      20.586221804705119      23.084034239912192      21.152465905503799
   128   0   1   0.0      8.5270742792203755      24.291508547704947      22.040201799859911
   129   0   1   0.0      20.602004007987702      25.587443184912615      21.302579508295214
   130   0   1   0.0      8.5255396117123183      26.764002293364648      21.986236163478974
   131   0   1   0.0      9.9227057216731858      16.836402451837007      21.460441308095081
   132   0   1   0.0      10.616611818131821      18.093990624118476      21.390631385434176
   133   0   1   0.0      9.8968527990673234      19.339816628370869      21.518567877847083
   134   0   1   0.0      10.621157107627786      20.558460296642785      21.630789329719942
   135   0   1   0.0      9.9212318698978841      21.841938017005688      21.766983676974917
   136   0   1   0.0      10.650798644272438      23.043255442250054      21.788990865443989
   137   0   1   0.0      9.9472987796287899      24.304843483332277      21.862500900078462
   138   0   1   0.0      10.658868546248106       25.55186084935989       21.80271248722071
   139   0   1   0.0      9.9562120850011624      26.774081326026671      21.927768081118078
   140   0   1   0.0      10.683196027454679      28.034771370952956      21.872175629711162
   141   0   1   0.0       12.10739225636646      28.014546388133525      21.842894788953764
   142   0   1   0.0      12.719690379085758      16.867854910501585      21.260404673574154
   143   0   1   0.0      11.999880086544476      18.147890172276782       21.36409125820655
   144   0   1   0.0      12.717072552115049      19.360646335318862      21.443039068308629
   145   0   1   0.0      12.065295887761017      20.611352456896793       21.54071894588407
   146   0   1   0.0       12.81131798555635       21.84591318007941      21.597263126242808
   147   0   1   0.0      12.088756979756369      23.068891468505008      21.727270780522989
   148   0   1   0.0      12.721330234900817      24.314075309692374      21.616318621018074
   149   0   1   0.0      12.033422824240066      25.492862485783096      21.704851179104189
   150   0   1   0.0      12.808159272345948      26.753080741621446      21.684957629917712
   151   0   1   0.0      14.166839008103565      16.890902174941999      21.198417079915217
   152   0   1   0.0      14.845054332018574      18.126416725027109      21.357047053487218
   153   0   1   0.0      14.158232249321959      19.338131670606121       21.46351920098536
   154   0   1   0.0      14.865088775383764      20.552490617362547      21.429527815265089
   155   0   1   0.0      14.237260471583584      21.828778124290398      21.562119379015336
   156   0   1   0.0      14.894345377796432      23.065920926206033      21.432590033048946
   157   0   1   0.0      14.148846363214721      24.264868429038774      21.497515179306827
   158   0   1   0.0      14.930266853932142      25.460918864487653      21.478237068753277
   159   0   1   0.0      14.223483956777656      26.729062795306444      21.590611895572707
   160   0   1   0.0      14.959778980794045      27.961558543944506      21.571838562903078
   161   0   1   0.0      16.366081180198137      27.966358879966791      21.462966839417845
   162   0   1   0.0      17.023789394062739      16.885427698195588      21.302444248590874
   163   0   1   0.0      16.280034592602174      18.091557762857459      21.406785595512634
   164   0   1   0.0      17.030417587445836      19.344667884349526      21.424486267328245
   165   0   1   0.0      16.314345326904803      20.594601472993357        21.4632996537132
   166   0   1   0.0      17.045609858323932      21.825446307320242      21.572776647730876
   167   0   1   0.0      16.294580139898837       23.05229685158567      21.473255442920905
   168   0   1   0.0      16.995431332931059      24.283172971675398      21.403048037215342
   169   0   1   0.0      16.300834432866978      25.501905903444925      21.461650386606458
   170   0   1   0.0      17.017442012895533      26.778825181653524      21.433669444007403
   171   0   1   0.0      18.467826095819564      16.866689850483365      21.294899642357976
   172   0   1   0.0      19.198599680060401      18.092892603960756      21.261157449136501
   173   0   1   0.0      18.457371113915499      19.348147629846277      21.361438881639032
   174   0   1   0.0      19.155148666447705      20.587891995272511      21.259162520094229
   175   0   1   0.0      18.471556354624923      21.836930399603702      21.395350975068496
   176   0   1   0.0      19.147558866324424       23.10757064095198       21.33427533235233
   177   0   1   0.0      18.464818469335839      24.311732723348939      21.404618602233132
   178   0   1   0.0      19.201125170829489      25.535032099107919       21.32707843225328
   179   0   1   0.0      18.405222098825814       26.76853447122771      21.394711119457135
   180   0   1   0.0      19.116802818435378       28.00261353772505      21.374545056734167
   181   0   1   0.0      20.656520999430821      40.332867658024618      21.722359709698157
   182   0   1   0.0      8.5158733933071922      29.236273341776219      21.863916536781772
   183   0   1   0.0      20.602781591849578      30.478405297679707      21.400677444836692
   184   0   1   0.0      8.5298076870178097      31.699815265621627      21.695726735167238
   185   0   1   0.0      20.609430512065991      32.890856681555924       21.48196841104593
   186   0   1   0.0      8.5385362104737279      34.208317796109988       21.73109063641694
   187   0   1   0.0      20.631255365529121      35.380518348659713      21.543703605683358
   188   0   1   0.0      8.5419237458311752      36.639384927724237      21.708145039622448
   189   0   1   0.0      20.668440641299192      37.859894523885963      21.547608196049371
   190   0   1   0.0      8.5085339198550969      39.117762222286821       21.71239229526115
   191   0   1   0.0      9.9507993881001298      29.222152404619884       21.87050071290173
   192   0   1   0.0      10.679588484605274      30.448385461905087      21.710294669545071
   193   0   1   0.0      9.9774432649454958      31.679183216936362      21.732107405924665
   194   0   1   0.0      10.654976464585177       32.93190585309646      21.749625104392468
   195   0   1   0.0      9.9980354859631966      34.168180125454064      21.728901807741792
   196   0   1   0.0      10.693144358706622      35.407455525982897      21.610101391448701
   197   0   1   0.0      9.9828697908352186      36.601088102876915      21.580648193811609
   198   0   1   0.0      10.639935146734588      37.851215490452859      21.607134957972292
   199   0   1   0.0       9.915016721851611      39.127190853671777       21.59334030654394
   200   0   1   0.0      10.662055821448551      40.333392272571942      21.643019994118806
   201   0   1   0.0      12.099984676744354      40.332315555415427      21.634462505363615
   202   0   1   0.0      12.820836037929862      29.228480246286786      21.795452393390232
   203   0   1   0.0      12.077172708298171      30.445017715297922      21.785684782810712
   204   0   1   0.0      12.826397270471455      31.675721979485072      21.738734020326188
   205   0   1   0.0      12.087340475842373      32.940034667240639      21.645062578089629
   206   0   1   0.0      12.846394216486258      34.176319249562681      21.538519787316442
   207   0   1   0.0      12.124298511925597      35.446328956865024      21.442709111458939
   208   0   1   0.0      12.764762077496636      36.696568228216172       21.43031980920356
   209   0   1   0.0      12.035260159670317      37.894108310521553      21.518110797303745
   210   0   1   0.0      12.784504004516442      39.134470686233001      21.560604313509266
   211   0   1   0.0      14.245900708504113      29.232762117245478      21.615454828302546
   212   0   1   0.0       14.94468488647245       30.47766243936865      21.556998562977721
   213   0   1   0.0      14.276609470117346      31.709714839706557      21.608914383738494
   214   0   1   0.0      14.950144326014549      32.941623447048748      21.554428430515806
   215   0   1   0.0      14.246322984180532      34.170080249308086        21.4371449261964
   216   0   1   0.0      14.936546659537148      35.442146721078814      21.460248137351776
   217   0   1   0.0      14.176754559476469      36.707712981883965      21.330038587271734
   218   0   1   0.0      14.885133172686487      37.895489151912919      21.405048914582366
   219   0   1   0.0      14.174160108208762      39.142237616103479       21.49291362371136
   220   0   1   0.0       14.94461542036329      40.328346061537182      21.738708735585586
   221   0   1   0.0      16.404140485829252      40.323345782300926      21.760175868785748
   222   0   1   0.0      17.046736316616538        29.2652712628459      21.376997225723667
   223   0   1   0.0      16.361430408426688       30.51890441893411      21.453725849457992
   224   0   1   0.0      17.038426923692345      31.775514415318931      21.437925302889926
   225   0   1   0.0      16.336538715311576      33.028455702021823      21.462404174417003
   226   0   1   0.0      17.079029779227731      34.214724570545698      21.413057556430083
   227   0   1   0.0      16.367682806057203      35.438789136513975      21.365197033394761
   228   0   1   0.0      17.097996542116697      36.702317995210613       21.40008005948426
   229   0   1   0.0      16.331286569581163       37.91166328328471      21.424762014920223
   230   0   1   0.0       17.07939688194714      39.092119833019055      21.633015418449816
   231   0   1   0.0      18.448774140749656      29.263055169629048      21.408675220456402
   232   0   1   0.0      19.199057681266488      30.495916643851103        21.4272249522922
   233   0   1   0.0      18.475325924694133      31.728744771221045      21.460064724917927
   234   0   1   0.0      19.188223478881806      32.948187735463875      21.371790501420573
   235   0   1   0.0      18.505477235916374      34.202072931763006      21.447163358092443
   236   0   1   0.0      19.194128436217948      35.424905383202301      21.455066663700794
   237   0   1   0.0      18.546186654936999      36.676442631356267      21.436140770966709
   238   0   1   0.0      19.239913324452697      37.857045725244696      21.626489055595485
   239   0   1   0.0      18.477694220047251      39.111463772948603      21.736047508801796
   240   0   1   0.0      19.248081972176415      40.357554881630769      21.763542220559305
   241   0   1   0.0      20.690208106483357      52.715428757859215      21.554806448154668
   242   0   1   0.0      8.5230967183694109      41.552348855020291      21.892340831683377
   243   0   1   0.0      20.686960459312971        42.8020830658565       21.90332381018117
   244   0   1   0.0      8.4907370551547618      43.999695315122402      21.966899915892014
   245   0   1   0.0      20.678492533864116      45.342539321885369      21.959417547600534
   246   0   1   0.0      8.4927023642752548      46.456805864833406      22.012054379407132
   247   0   1   0.0      20.684995066755224      47.841767559735317       21.76606277570064
   248   0   1   0.0       8.467149820545842      48.973951168238848      21.939569248928109
   249   0   1   0.0      20.677142301482991      50.209552945093904      21.743708142521339
   250   0   1   0.0      8.5084597396574164      51.477807226334086      21.974570201829827
   251   0   1   0.0      9.9498656896840654      41.559558702393772      21.802456897149874
   252   0   1   0.0      10.652879274587256      42.788509679955617      21.941602263353044
   253   0   1   0.0      9.9350450922367841      44.014497085955099      22.011606057463403
   254   0   1   0.0      10.626891708417396      45.243875301022285      21.989854550816116
   255   0   1   0.0       9.941537471986166      46.456764592384658      21.944167770262744
   256   0   1   0.0       10.57457909265192      47.765699211866597      21.914208974694063
   257   0   1   0.0      9.8940678907580448      48.988924944301644      21.801546544723095
   258   0   1   0.0      10.627465027845918      50.208761773927996      21.831400562588176
   259   0   1   0.0      9.9689834451789725      51.443617600254555      22.040271090867989
   260   0   1   0.0      10.624588906695305      52.705063787128218      22.055359017989502
   261   0   1   0.0      12.065583029556075      52.627099696559796      21.948759412776361
   262   0   1   0.0      12.774999922345421      41.559672961599382      21.700196862074126
   263   0   1   0.0      12.069673782372236      42.786564738367183      21.811338074045359
   264   0   1   0.0      12.760218411427392      44.026161342915231       21.85168836417531
   265   0   1   0.0       12.06449487394076      45.215436744434918      21.910700536891316
   266   0   1   0.0      12.779692040157411      46.477033634165757      21.977747321113068
   267   0   1   0.0      12.012022331294174       47.70736657219669      21.997492973198071
   268   0   1   0.0      12.731063970246003      48.951178308610992      21.872277271081728
   269   0   1   0.0      12.047631331001647      50.215433294835783       21.87572700195209
   270   0   1   0.0      12.789025336618908       51.41070066376691      21.924652054228996
   271   0   1   0.0      14.213446232943967      41.565548550592602      21.747827014252728
   272   0   1   0.0      14.875906759216342        42.8111277016611      21.860494536733224
   273   0   1   0.0      14.215572742074533      44.082744627260638      21.947307479666915
   274   0   1   0.0      14.964319639376749      45.335102042400294      22.041674812416545
   275   0   1   0.0      14.251513865083458      46.553661217479522      21.995476286984832
   276   0   1   0.0      14.933407361407077      47.772679864424113      21.896208029492641
   277   0   1   0.0      14.205230314928103      48.988405968078197      21.755631543297273
   278   0   1   0.0      14.940829127158754      50.239514657925398      21.756339421739806
   279   0   1   0.0      14.230072563704709      51.460422866551234       21.76178906591575
   280   0   1   0.0      14.914332935575132      52.707094735636716      21.749017705424517
   281   0   1   0.0      16.371209472645042      52.697069687327435      21.682100389267628
   282   0   1   0.0      17.082412219736067      41.543137967794252      21.864084352048085
   283   0   1   0.0      16.348839037366147      42.822375184609797      21.961954140884355
   284   0   1   0.0       17.10045239229299      44.047628923313958       22.01382574818275
   285   0   1   0.0      16.367463750367566      45.336986354373202      21.994715212611169
   286   0   1   0.0      17.126656706939123      46.586789550434204      21.942440240242771
   287   0   1   0.0      16.395471915409999      47.767859769922964      21.929790436211078
   288   0   1   0.0      17.098322498153014      49.014489340716793      21.859937966585615
   289   0   1   0.0      16.342112669309813       50.23911693929378      21.778403551498403
   290   0   1   0.0      17.053848590237049      51.448835197020308      21.735878807405417
   291   0   1   0.0      18.475347318012386       41.60975965073434      21.906606821769039
   292   0   1   0.0       19.22102120482641      42.824398894579204      21.986847953994381
   293   0   1   0.0      18.545046010430617      44.098005540680077      22.031728334200565
   294   0   1   0.0      19.265252842023582      45.325304890986168      22.110106676888467
   295   0   1   0.0       18.54594667842002      46.557575457100924      22.011027160612251
   296   0   1   0.0      19.283344984864026      47.813650946041477      21.885288241962549
   297   0   1   0.0      18.527088952944688      49.016920245934969      21.825069215660822
   298   0   1   0.0      19.261778758489605      50.218776791069523      21.731259106967702
   299   0   1   0.0      18.529518295109398      51.474580884311663      21.689127757240872
   300   0   1   0.0      19.195648513320389      52.746097358892307      21.708609207368841
   301   0   1   0.0      20.602333425363991      65.037522200206709      20.619090739765596
   302   0   1   0.0      8.5154547833987024      53.918518662404459      22.193894532628942
   303   0   1   0.0      20.621492290096665      55.149800010652527      21.299629535000964
   304   0   1   0.0      8.4907682778456941      56.420351131280597      22.161585066859264
   305   0   1   0.0      20.588351450102163      57.660271271885868      21.158702378322459
   306   0   1   0.0      8.5126427064478882      58.915676173871418      21.931764852848573
   307   0   1   0.0      20.609950255862593      60.117306306149707       20.83857627630907
   308   0   1   0.0      8.5076239328714554       61.37294231463548      21.793836161869368
   309   0   1   0.0      20.581366481027846      62.607661735203877       20.59055652179336
   310   0   1   0.0      8.5096192783473619      63.826546256833623      21.492746227442844
   311   0   1   0.0      9.9454602982003095         53.895619785632      22.086164151065223
   312   0   1   0.0      10.631597201426176      55.156466463650588      21.973090074797906
   313   0   1   0.0      9.9595527246306954      56.415488827190224      22.003974629929051
   314   0   1   0.0      10.658261398418421      57.663893836671036      21.871368195721249
   315   0   1   0.0      9.9897285074533446      58.915818851475635      21.837377671657286
   316   0   1   0.0      10.685987028669372      60.114676687897912      21.642046218244463
   317   0   1   0.0      9.9743348030574932      61.394415703426567       21.64904674034328
   318   0   1   0.0      10.654789597738045      62.590732022595397      21.449803618102749
   319   0   1   0.0      9.9018773405635301      63.834353151110115      21.387103332909891