 DBCSR| CPU Multiplication driver                                           BLAS
 DBCSR| Multrec recursion limit                                              512
 DBCSR| Multiplication stack size                                           1000
 DBCSR| Maximum elements for images                                    UNLIMITED
 DBCSR| Multiplicative factor virtual images                                   1
 DBCSR| Use multiplication densification                                       T
 DBCSR| Multiplication size stacks                                             3
 DBCSR| Use memory pool for CPU allocation                                     F
 DBCSR| Number of 3D layers                                               SINGLE
 DBCSR| Use MPI memory allocation                                              F
 DBCSR| Use RMA algorithm                                                      F
 DBCSR| Use Communication thread                                               T
 DBCSR| Communication thread load                                             87
 DBCSR| MPI: My node id                                                        0
 DBCSR| MPI: Number of nodes                                                 128
 DBCSR| OMP: Current number of threads                                         1
 DBCSR| OMP: Max number of threads                                             1
 DBCSR| Split modifier for TAS multiplication algorithm                  1.0E+00


  **** **** ******  **  PROGRAM STARTED AT               2025-10-22 11:37:35.265
 ***** ** ***  *** **   PROGRAM STARTED ON                             nid005389
 **    ****   ******    PROGRAM STARTED BY                            xr223_ukcp
 ***** **    ** ** **   PROGRAM PROCESS ID                                 82941
  **** **  *******  **  PROGRAM STARTED IN /mnt/lustre/a2fs-work3/work/e89/e89/x
                                           r223_ukcp/BINDING-ENERGY-DARREN/bindi
                                           ng-energy/1-leg/s+0.00/d+4.25

 CP2K| version string:                                          CP2K version 9.1
 CP2K| source code revision number:                                  git:d8d7100
 CP2K| cp2kflags: omp libint fftw3 libxc elpa parallel mpi3 scalapack plumed2 mk
 CP2K|            l
 CP2K| is freely available from                            https://www.cp2k.org/
 CP2K| Program compiled at                       Thu 08 Jun 2023 08:54:13 AM BST
 CP2K| Program compiled on                                                  ln03
 CP2K| Program compiled for                                              ARCHER2
 CP2K| Data directory path       /work/y07/shared/apps/core/cp2k/cp2k-9.1.0/data
 CP2K| Input file name                                              cp2k_sub.inp

 GLOBAL| Force Environment number                                              1
 GLOBAL| Basis set file name                                      GTH_BASIS_SETS
 GLOBAL| Potential file name                                           POTENTIAL
 GLOBAL| MM Potential file name                                     MM_POTENTIAL
 GLOBAL| Coordinate file name                                           init.pdb
 GLOBAL| Method name                                                        CP2K
 GLOBAL| Project name                                                    MAT-H2O
 GLOBAL| Run type                                                         ENERGY
 GLOBAL| FFT library                                                       FFTW3
 GLOBAL| Diagonalization library                                            ELPA
 GLOBAL| Minimum number of eigenvectors for ELPA usage                        16
 GLOBAL| Orthonormality check for eigenvectors                          DISABLED
 GLOBAL| Matrix multiplication library                                 ScaLAPACK
 GLOBAL| All-to-all communication in single precision                          F
 GLOBAL| FFTs using library dependent lengths                                  F
 GLOBAL| Grid backend                                                       AUTO
 GLOBAL| Global print level                                                  LOW
 GLOBAL| MPI I/O enabled                                                       T
 GLOBAL| Total number of message passing processes                           128
 GLOBAL| Number of threads for this process                                    1
 GLOBAL| This output is from process                                           0
 GLOBAL| Stack size for threads created by OpenMP (OMP_STACKSIZE)        default
 GLOBAL| CPU model name                          AMD EPYC 7742 64-Core Processor
 GLOBAL| CPUID                                                              1002

 MEMORY| system memory details [Kb]
 MEMORY|                        rank 0           min           max       average
 MEMORY| MemTotal            263266824     263266824     263266824     263266824
 MEMORY| MemFree             241440552     241440552     241440552     241440552
 MEMORY| Buffers                182316        182316        182316        182316
 MEMORY| Cached                1341504       1341504       1341508       1341507
 MEMORY| Slab                  3349960       3349960       3349960       3349960
 MEMORY| SReclaimable           968524        968524        968524        968524
 MEMORY| MemLikelyFree       243932896     243932896     243932900     243932899


 *******************************************************************************
 *******************************************************************************
 **                                                                           **
 **     #####                         ##              ##                      **
 **    ##   ##            ##          ##              ##                      **
 **   ##     ##                       ##            ######                    **
 **   ##     ##  ##   ##  ##   #####  ##  ##   ####   ##    #####    #####    **
 **   ##     ##  ##   ##  ##  ##      ## ##   ##      ##   ##   ##  ##   ##   **
 **   ##  ## ##  ##   ##  ##  ##      ####     ###    ##   ######   ######    **
 **    ##  ###   ##   ##  ##  ##      ## ##      ##   ##   ##       ##        **
 **     #######   #####   ##   #####  ##  ##  ####    ##    #####   ##        **
 **           ##                                                    ##        **
 **                                                                           **
 **                                                ... make the atoms dance   **
 **                                                                           **
 **            Copyright (C) by CP2K developers group (2000-2021)             **
 **                      J. Chem. Phys. 152, 194103 (2020)                    **
 **                                                                           **
 *******************************************************************************


 TOTAL NUMBERS AND MAXIMUM NUMBERS

  Total number of            - Atomic kinds:                                   3
                             - Atoms:                                         67
                             - Shell sets:                                    70
                             - Shells:                                       338
                             - Primitive Cartesian functions:                341
                             - Cartesian basis functions:                    938
                             - Spherical basis functions:                    872

  Maximum angular momentum of- Orbital basis functions:                        2
                             - Local part of the GTH pseudopotential:          2
                             - Non-local part of the GTH pseudopotential:      0


 SCF PARAMETERS         Density guess:                                   RESTART
                        --------------------------------------------------------
                        max_scf:                                              20
                        max_scf_history:                                       0
                        max_diis:                                              4
                        --------------------------------------------------------
                        eps_scf:                                        5.00E-07
                        eps_scf_history:                                0.00E+00
                        eps_diis:                                       1.00E-01
                        eps_eigval:                                     1.00E-05
                        --------------------------------------------------------
                        level_shift [a.u.]:                                 0.00
                        added MOs                                        20    0
                        --------------------------------------------------------
                        Mixing method:                            BROYDEN_MIXING
                                                charge density mixing in g-space
                        --------------------------------------------------------
                        Smear method:                                FERMI_DIRAC
                        Electronic temperature [K]:                        300.0
                        Electronic temperature [a.u.]:                  9.50E-04
                        Accuracy threshold:                             1.00E-10
                        --------------------------------------------------------
                        Outer loop SCF in use 
                        No variables optimised in outer loop
                        eps_scf                                         5.00E-07
                        max_scf                                               20
                        No outer loop optimization
                        step_size                                       5.00E-01

 Number of electrons:                                                        264
 Number of occupied orbitals:                                                132
 Number of molecular orbitals:                                               152

 Number of orbital functions:                                                872
 Number of independent orbital functions:                                    872

 Extrapolation method: initial_guess

 *** WARNING in qs_initial_guess.F:309 :: User requested to restart the    ***
 *** wavefunction from the file named: MAT-H2O-RESTART.wfn. This file does ***
 *** not exist. Please check the existence of the file or change properly  ***
 *** the value of the keyword WFN_RESTART_FILE_NAME. Calculation continues ***
 *** using ATOMIC GUESS.                                                   ***



 SCF WAVEFUNCTION OPTIMIZATION

  Step     Update method      Time    Convergence         Total energy    Change
  ------------------------------------------------------------------------------
     1 NoMix/Diag. 0.40E+00    0.6     1.20928214      -379.5649434188 -3.80E+02
     2 Broy./Diag. 0.40E+00    0.7     0.33157298      -368.7578442031  1.08E+01
     3 Broy./Diag. 0.40E+00    0.8     0.02168384      -378.4633407148 -9.71E+00
     4 Broy./Diag. 0.40E+00    0.8     0.00981118      -382.3498950919 -3.89E+00
     5 Broy./Diag. 0.40E+00    0.8     0.00347734      -382.5307449554 -1.81E-01
     6 Broy./Diag. 0.40E+00    0.8     0.00113655      -382.2351313589  2.96E-01
     7 Broy./Diag. 0.40E+00    0.8     0.00104898      -382.1957856997  3.93E-02
     8 Broy./Diag. 0.40E+00    0.8     0.00181387      -382.2035728168 -7.79E-03
     9 Broy./Diag. 0.40E+00    0.8     0.00108983      -382.2020924632  1.48E-03
    10 Broy./Diag. 0.40E+00    0.8     0.00044506      -382.2051679200 -3.08E-03
    11 Broy./Diag. 0.40E+00    0.8     0.00081792      -382.2035771037  1.59E-03
    12 Broy./Diag. 0.40E+00    0.8     0.00015261      -382.2041543688 -5.77E-04
    13 Broy./Diag. 0.40E+00    0.8     0.00006663      -382.2046318513 -4.77E-04
    14 Broy./Diag. 0.40E+00    0.8     0.00007477      -382.2042009572  4.31E-04
    15 Broy./Diag. 0.40E+00    0.8     0.00003166      -382.2041276558  7.33E-05
    16 Broy./Diag. 0.40E+00    0.8     0.00001848      -382.2042145617 -8.69E-05
    17 Broy./Diag. 0.40E+00    0.8     0.00000309      -382.2042354698 -2.09E-05
    18 Broy./Diag. 0.40E+00    0.8     0.00000338      -382.2042093517  2.61E-05
    19 Broy./Diag. 0.40E+00    0.8     0.00000117      -382.2041988752  1.05E-05
    20 Broy./Diag. 0.40E+00    0.8     0.00000098      -382.2041975320  1.34E-06

  Leaving inner SCF loop after reaching    20 steps.


  Electronic density on regular grids:       -264.0000000000        0.0000000000
  Core density on regular grids:              263.9999999998       -0.0000000002
  Total charge density on r-space grids:       -0.0000000002
  Total charge density g-space grids:          -0.0000000002

  Overlap energy of the core charge distribution:               0.00001108883863
  Self energy of the core charge distribution:               -897.78766230971098
  Core Hamiltonian energy:                                    281.09373990118576
  Hartree energy:                                             351.23676988385449
  Exchange-correlation energy:                               -116.57236253419238
  Dispersion energy:                                           -0.17469356200069
  Electronic entropic energy:                                  -0.00000000000000
  Fermi energy:                                                -0.06307786803579

  Total energy:                                              -382.20419753202515

  outer SCF iter =    1 RMS gradient =   0.98E-06 energy =       -382.2041975320
     1 Broy./Diag. 0.40E+00    1.5     0.00000045      -382.2041875692  9.96E-06

  *** SCF run converged in     1 steps ***


  Electronic density on regular grids:       -264.0000000000        0.0000000000
  Core density on regular grids:              263.9999999998       -0.0000000002
  Total charge density on r-space grids:       -0.0000000002
  Total charge density g-space grids:          -0.0000000002

  Overlap energy of the core charge distribution:               0.00001108883863
  Self energy of the core charge distribution:               -897.78766230971098
  Core Hamiltonian energy:                                    281.09374245554471
  Hartree energy:                                             351.23677426303692
  Exchange-correlation energy:                               -116.57235950491530
  Dispersion energy:                                           -0.17469356200069
  Electronic entropic energy:                                  -0.00000000000000
  Fermi energy:                                                -0.06307829254395

  Total energy:                                              -382.20418756920679

  outer SCF iter =    2 RMS gradient =   0.45E-06 energy =       -382.2041875692
  outer SCF loop converged in   2 iterations or   21 steps


 ENERGY| Total FORCE_EVAL ( QS ) energy [a.u.]:             -382.204187569206795

 -------------------------------------------------------------------------------
 -                                                                             -
 -                                DBCSR STATISTICS                             -
 -                                                                             -
 -------------------------------------------------------------------------------
 COUNTER                                    TOTAL       BLAS       SMM       ACC
 flops     9 x    22 x    24               199584     100.0%      0.0%      0.0%
 flops    22 x     9 x    24               199584     100.0%      0.0%      0.0%
 flops     9 x     9 x    24               244944     100.0%      0.0%      0.0%
 flops    22 x    22 x    24               487872     100.0%      0.0%      0.0%
 flops     9 x    22 x    32              1064448     100.0%      0.0%      0.0%
 flops    22 x     9 x    32              1064448     100.0%      0.0%      0.0%
 flops     9 x     9 x    32              1306368     100.0%      0.0%      0.0%
 flops    22 x    22 x    32              2601984     100.0%      0.0%      0.0%
 flops     9 x    13 x    24              7547904     100.0%      0.0%      0.0%
 flops    13 x     9 x    24              7547904     100.0%      0.0%      0.0%
 flops    22 x    13 x    24              9225216     100.0%      0.0%      0.0%
 flops    13 x    22 x    24              9225216     100.0%      0.0%      0.0%
 flops     9 x    13 x    32             40255488     100.0%      0.0%      0.0%
 flops    13 x     9 x    32             40255488     100.0%      0.0%      0.0%
 flops    22 x    13 x    32             49201152     100.0%      0.0%      0.0%
 flops    13 x    22 x    32             49201152     100.0%      0.0%      0.0%
 flops    13 x    13 x    24            354332160     100.0%      0.0%      0.0%
 flops    13 x    13 x    32           1889771520     100.0%      0.0%      0.0%
 flops inhomo. stacks                           0       0.0%      0.0%      0.0%
 flops total                         2.463732E+09     100.0%      0.0%      0.0%
 flops max/rank                     32.200896E+06     100.0%      0.0%      0.0%
 matmuls inhomo. stacks                         0       0.0%      0.0%      0.0%
 matmuls total                             239190     100.0%      0.0%      0.0%
 number of processed stacks                 21525     100.0%      0.0%      0.0%
 average stack size                                    11.1       0.0       0.0
 marketing flops                     4.215569E+09
 -------------------------------------------------------------------------------
 # multiplications                             21
 max memory usage/rank             342.491136E+06
 # max total images/rank                        2
 # max 3D layers                                1
 # MPI messages exchanged                   77952
 MPI messages size (bytes):
  total size                       489.882624E+06
  min size                           0.000000E+00
  max size                          29.952000E+03
  average size                       6.284414E+03
 MPI breakdown and total messages size (bytes):
             size <=      128               53592                        0
       128 < size <=     8192                   0                        0
      8192 < size <=    32768               24360                489882624
     32768 < size <=   131072                   0                        0
    131072 < size <=  4194304                   0                        0
   4194304 < size <= 16777216                   0                        0
  16777216 < size                               0                        0
 -------------------------------------------------------------------------------

 *** WARNING in dbcsr_mm.F:294 :: Using a non-square number of MPI ranks ***
 *** might lead to poor performance. Used ranks: 128 Suggested: 121 256  ***

 -------------------------------------------------------------------------------
 -                                                                             -
 -                      DBCSR MESSAGE PASSING PERFORMANCE                      -
 -                                                                             -
 -------------------------------------------------------------------------------
 ROUTINE             CALLS      AVE VOLUME [Bytes]
 MP_Bcast               19                     12.
 MP_Allreduce          203                     12.
 MP_Alltoall           600                  51903.
 MP_ISend             1344                   3590.
 MP_IRecv             1344                   2683.
 -------------------------------------------------------------------------------

 -------------------------------------------------------------------------------
 -                                                                             -
 -                                GRID STATISTICS                              -
 -                                                                             -
 -------------------------------------------------------------------------------
 LP    KERNEL             BACKEND                              COUNT     PERCENT
 4     collocate ortho    REF                                1056352      47.32%
 4     integrate ortho    REF                                1008336      45.17%
 2     collocate ortho    REF                                  42108       1.89%
 2     integrate ortho    REF                                  40194       1.80%
 3     collocate ortho    REF                                  34958       1.57%
 3     integrate ortho    REF                                  33369       1.49%
 0     collocate general  REF                                   8576       0.38%
 1     collocate ortho    REF                                   2508       0.11%
 1     integrate ortho    REF                                   2394       0.11%
 0     collocate ortho    REF                                   1760       0.08%
 0     integrate ortho    REF                                   1680       0.08%
 -------------------------------------------------------------------------------

 MEMORY| Estimated peak process memory [MiB]                                 328

 -------------------------------------------------------------------------------
 -                                                                             -
 -                         MESSAGE PASSING PERFORMANCE                         -
 -                                                                             -
 -------------------------------------------------------------------------------

 ROUTINE             CALLS      AVE VOLUME [Bytes]
 MP_Group                5
 MP_Bcast              176                3693879.
 MP_Allreduce          603                   1631.
 MP_Sync                47
 MP_Alltoall           337                3371170.
 MP_SendRecv           252                 409600.
 MP_ISendRecv        16383                  24960.
 MP_Wait             18645
 MP_comm_split          21
 MP_ISend             1914                 367209.
 MP_IRecv             1914                 367321.
 MP_Recv                15                  69760.
 -------------------------------------------------------------------------------


 -------------------------------------------------------------------------------
 -                                                                             -
 -                           R E F E R E N C E S                               -
 -                                                                             -
 -------------------------------------------------------------------------------
 
 CP2K version 9.1, the CP2K developers group (2021).
 CP2K is freely available from https://www.cp2k.org/ .

 Kuehne,Thomas D.; Iannuzzi,Marcella; Del Ben,Mauro;
 Rybkin,Vladimir V.; Seewald,Patrick; Stein,Frederick; Laino,Teodoro;
 Khaliullin,Rustam Z.; Schuett,Ole; Schiffmann,Florian; Golze,Dorothea;
 Wilhelm,Jan; Chulkov,Sergey; Bani-Hashemian,Mohammad Hossein;
 Weber,Valery; Borstnik,Urban; Taillefumier,Mathieu;
 Jakobovits,Alice Shoshana; Lazzaro,Alfio; Pabst,Hans; Mueller,Tiziano;
 Schade,Robert; Guidon,Manuel; Andermatt,Samuel; Holmberg,Nico;
 Schenter,Gregory K.; Hehn,Anna; Bussy,Augustin; Belleflamme,Fabian;
 Tabacchi,Gloria; Gloess,Andreas; Lass,Michael; Bethune,Iain;
 Mundy,Christopher J.; Plessl,Christian; Watkins,Matt;
 VandeVondele,Joost; Krack,Matthias; Hutter,Juerg. 
 The Journal of Chemical Physics, 152 (19), (2020). 
 CP2K: An electronic structure and molecular dynamics software package -
 Quickstep: Efficient and accurate electronic structure calculations.
 https://doi.org/10.1063/5.0007045

 Goerigk, Lars; Hansen, Andreas; Bauer, Christoph; Ehrlich, Stephan;
 Najibi, Asim; Grimme, Stefan. , 19 (48), (2017). 
 A look at the density functional theory zoo with the advanced GMTKN55 database
 for general main group thermochemistry, kinetics and noncovalent interactions.
 https://doi.org/10.1039/C7CP04913G

 Schuett, Ole; Messmer, Peter; Hutter, Juerg; VandeVondele, Joost. 
 Electronic Structure Calculations on Graphics Processing Units, John
 Wiley & Sons, Ltd, 173-190 (2016). 
 GPU-Accelerated Sparse Matrix-Matrix Multiplication for
 Linear Scaling Density Functional Theory.
 https://doi.org/10.1002/9781118670712.ch8

 Borstnik, U; VandeVondele, J; Weber, V; Hutter, J. 
 PARALLEL COMPUTING, 40 (5-6), 47-58 (2014). 
 Sparse matrix multiplication: The distributed block-compressed sparse
 row library.
 https://doi.org/10.1016/j.parco.2014.03.012

 Hutter, J; Iannuzzi, M; Schiffmann, F; VandeVondele, J. 
 WIREs Comput Mol Sci., 4 (1), 15-25 (2014). 
 CP2K: atomistic simulations of condensed matter systems.
 https://doi.org/10.1002/wcms.1159

 Marek, A; Blum, V; Johanni, R; Havu, V; Lang, B; Auckenthaler, T;
 Heinecke, A; Bungartz, H; Lederer, H. 
 Journal of Physics: Condensed Matter, 26 (21), (2014). 
 The ELPA library: scalable parallel eigenvalue solutions for
 electronic structure
 theory and computational science.
 https://doi.org/10.1088/0953-8984/26/21/213201

 Grimme, S; Ehrlich, S; Goerigk, L. 
 JOURNAL OF COMPUTATIONAL CHEMISTRY, 32, 1456 (2011). 
 Effect of the damping function in dispersion corrected density functional theory.
 https://doi.org/10.1002/jcc.21759

 Grimme, S; Antony, J; Ehrlich, S; Krieg, H. 
 JOURNAL OF CHEMICAL PHYSICS, 132 (15), 154104 (2010). 
 A consistent and accurate ab initio parametrization of density
 functional dispersion correction (DFT-D) for the 94 elements H-Pu.
 https://doi.org/10.1063/1.3382344

 VandeVondele, J; Hutter, J. 
 JOURNAL OF CHEMICAL PHYSICS, 127 (11), 114105 (2007). 
 Gaussian basis sets for accurate calculations on molecular systems in
 gas and condensed phases.
 https://doi.org/10.1063/1.2770708

 Krack, M. 
 THEORETICAL CHEMISTRY ACCOUNTS, 114 (1-3), 145-152 (2005). 
 Pseudopotentials for H to Kr optimized for gradient-corrected
 exchange-correlation functionals.
 https://doi.org/10.1007/s00214-005-0655-y

 VandeVondele, J; Krack, M; Mohamed, F; Parrinello, M; Chassaing, T;
 Hutter, J. COMPUTER PHYSICS COMMUNICATIONS, 167 (2), 103-128 (2005). 
 QUICKSTEP: Fast and accurate density functional calculations using a
 mixed Gaussian and plane waves approach.
 https://doi.org/10.1016/j.cpc.2004.12.014

 Frigo, M; Johnson, SG. 
 PROCEEDINGS OF THE IEEE, 93 (2), 216-231 (2005). 
 The design and implementation of FFTW3.
 https://doi.org/10.1109/JPROC.2004.840301

 Hartwigsen, C; Goedecker, S; Hutter, J. 
 PHYSICAL REVIEW B, 58 (7), 3641-3662 (1998). 
 Relativistic separable dual-space Gaussian pseudopotentials from H to Rn.
 https://doi.org/10.1103/PhysRevB.58.3641

 Zhang, YK; Yang, WT. 
 PHYSICAL REVIEW LETTERS, 80 (4), 890-890 (1998). 
 Comment on Generalized gradient approximation made simple.
 https://doi.org/10.1103/PhysRevLett.80.890

 Lippert, G; Hutter, J; Parrinello, M. 
 MOLECULAR PHYSICS, 92 (3), 477-487 (1997). 
 A hybrid Gaussian and plane wave density functional scheme.
 https://doi.org/10.1080/002689797170220

 Perdew, JP; Burke, K; Ernzerhof, M. 
 PHYSICAL REVIEW LETTERS, 77 (18), 3865-3868 (1996). 
 Generalized gradient approximation made simple.
 https://doi.org/10.1103/PhysRevLett.77.3865

 Goedecker, S; Teter, M; Hutter, J. 
 PHYSICAL REVIEW B, 54 (3), 1703-1710 (1996). 
 Separable dual-space Gaussian pseudopotentials.
 https://doi.org/10.1103/PhysRevB.54.1703


 -------------------------------------------------------------------------------
 -                                                                             -
 -                                T I M I N G                                  -
 -                                                                             -
 -------------------------------------------------------------------------------
 SUBROUTINE                       CALLS  ASD         SELF TIME        TOTAL TIME
                                MAXIMUM       AVERAGE  MAXIMUM  AVERAGE  MAXIMUM
 CP2K                                 1  1.0    0.113    0.126   18.306   18.311
 qs_energies                          1  2.0    0.005    0.009   17.527   17.536
 scf_env_do_scf                       1  3.0    0.002    0.004   16.649   16.654
 scf_env_do_scf_inner_loop           21  4.0    0.008    0.011   16.646   16.652
 qs_ks_update_qs_env                 21  5.0    0.001    0.001    7.246    7.251
 rebuild_ks_matrix                   21  6.0    0.003    0.004    7.241    7.244
 qs_ks_build_kohn_sham_matrix        21  7.0    0.011    0.015    7.239    7.243
 rs_pw_transfer                     216  9.4    0.004    0.006    5.128    5.343
 qs_rho_update_rho                   22  5.0    0.000    0.002    5.225    5.228
 calculate_rho_elec                  22  6.0    0.020    0.022    5.225    5.228
 density_rs2pw                       22  7.0    0.004    0.005    3.914    4.148
 sum_up_and_integrate                21  8.0    0.023    0.029    3.786    3.790
 integrate_v_rspace                  21  9.0    0.001    0.003    3.763    3.774
 pw_transfer                        320  9.0    0.056    0.063    3.423    3.591
 fft_wrap_pw1pw2                    278 10.0    0.003    0.004    3.287    3.453
 potential_pw2rs                     21 10.0    0.002    0.003    3.419    3.432
 fft_wrap_pw1pw2_530                106 10.2    0.286    0.344    3.013    3.150
 fft3d_ps                           278 12.0    1.369    1.503    2.534    2.698
 qs_vxc_create                       21  8.0    0.003    0.005    2.373    2.452
 xc_vxc_pw_create                    21  9.0    0.062    0.072    2.370    2.449
 qs_scf_new_mos                      21  5.0    0.003    0.005    2.240    2.246
 gspace_mixing                       19  5.0    0.017    0.020    2.207    2.209
 eigensolver                         21  6.0    0.003    0.005    2.079    2.081
 rs_pw_transfer_RS2PW_530            23  8.9    1.063    1.218    1.719    1.933
 cp_fm_diag_elpa                     21  7.0    0.000    0.000    1.852    1.859
 mp_waitany                        1914 11.4    1.270    1.839    1.270    1.839
 xc_rho_set_and_dset_create          21 10.0    0.037    0.052    1.652    1.833
 cp_fm_redistribute_end              21  8.0    1.598    1.828    1.600    1.830
 cp_fm_diag_elpa_base                21  8.0    0.223    1.791    0.226    1.812
 rs_pw_transfer_PW2RS_530            21 12.0    1.106    1.155    1.718    1.766
 broyden_mixing                      19  6.0    1.595    1.627    1.633    1.651
 pw_nn_compose_r                    126 10.5    0.674    0.714    0.988    1.466
 grid_collocate_task_list            22  7.0    1.231    1.317    1.231    1.317
 xc_functional_eval                  21 11.0    0.000    0.001    1.028    1.206
 pbe_lda_eval                        21 12.0    1.028    1.206    1.028    1.206
 mp_alltoall_z22v                   278 14.0    0.877    1.167    0.877    1.167
 mp_sendrecv_dm2                    252 11.5    0.314    0.846    0.314    0.846
 mp_waitall_1                     19083 11.5    0.656    0.746    0.656    0.746
 yz_to_x                            132 12.5    0.106    0.154    0.527    0.722
 x_to_yz                            146 13.5    0.172    0.209    0.629    0.698
 mp_sum_d                           587  3.4    0.300    0.588    0.300    0.588
 init_scf_run                         1  3.0    0.002    0.003    0.573    0.576
 rs_pw_transfer_PW2RS_180            21 12.0    0.197    0.215    0.415    0.480
 scf_env_initial_rho_setup            1  4.0    0.003    0.004    0.396    0.398
 pw_poisson_solve                    21  8.0    0.144    0.155    0.371    0.374
 qs_init_subsys                       1  2.0    0.008    0.015    0.360    0.367
 -------------------------------------------------------------------------------

 The number of warnings for this run is : 2
 
 -------------------------------------------------------------------------------
  **** **** ******  **  PROGRAM ENDED AT                 2025-10-22 11:37:57.267
 ***** ** ***  *** **   PROGRAM RAN ON                                 nid005389
 **    ****   ******    PROGRAM RAN BY                                xr223_ukcp
 ***** **    ** ** **   PROGRAM PROCESS ID                                 82941
  **** **  *******  **  PROGRAM STOPPED IN /mnt/lustre/a2fs-work3/work/e89/e89/x
                                           r223_ukcp/BINDING-ENERGY-DARREN/bindi
                                           ng-energy/1-leg/s+0.00/d+4.25
 DBCSR| CPU Multiplication driver                                           BLAS
 DBCSR| Multrec recursion limit                                              512
 DBCSR| Multiplication stack size                                           1000
 DBCSR| Maximum elements for images                                    UNLIMITED
 DBCSR| Multiplicative factor virtual images                                   1
 DBCSR| Use multiplication densification                                       T
 DBCSR| Multiplication size stacks                                             3
 DBCSR| Use memory pool for CPU allocation                                     F
 DBCSR| Number of 3D layers                                               SINGLE
 DBCSR| Use MPI memory allocation                                              F
 DBCSR| Use RMA algorithm                                                      F
 DBCSR| Use Communication thread                                               T
 DBCSR| Communication thread load                                             87
 DBCSR| MPI: My node id                                                        0
 DBCSR| MPI: Number of nodes                                                 128
 DBCSR| OMP: Current number of threads                                         1
 DBCSR| OMP: Max number of threads                                             1
 DBCSR| Split modifier for TAS multiplication algorithm                  1.0E+00


  **** **** ******  **  PROGRAM STARTED AT               2025-10-22 11:38:17.698
 ***** ** ***  *** **   PROGRAM STARTED ON                             nid002114
 **    ****   ******    PROGRAM STARTED BY                            xr223_ukcp
 ***** **    ** ** **   PROGRAM PROCESS ID                                251672
  **** **  *******  **  PROGRAM STARTED IN /mnt/lustre/a2fs-work3/work/e89/e89/x
                                           r223_ukcp/BINDING-ENERGY-DARREN/bindi
                                           ng-energy/1-leg/s+0.00/d+4.25

 CP2K| version string:                                          CP2K version 9.1
 CP2K| source code revision number:                                  git:d8d7100
 CP2K| cp2kflags: omp libint fftw3 libxc elpa parallel mpi3 scalapack plumed2 mk
 CP2K|            l
 CP2K| is freely available from                            https://www.cp2k.org/
 CP2K| Program compiled at                       Thu 08 Jun 2023 08:54:13 AM BST
 CP2K| Program compiled on                                                  ln03
 CP2K| Program compiled for                                              ARCHER2
 CP2K| Data directory path       /work/y07/shared/apps/core/cp2k/cp2k-9.1.0/data
 CP2K| Input file name                                              cp2k_sub.inp

 GLOBAL| Force Environment number                                              1
 GLOBAL| Basis set file name                                      GTH_BASIS_SETS
 GLOBAL| Potential file name                                           POTENTIAL
 GLOBAL| MM Potential file name                                     MM_POTENTIAL
 GLOBAL| Coordinate file name                                           init.pdb
 GLOBAL| Method name                                                        CP2K
 GLOBAL| Project name                                                    MAT-H2O
 GLOBAL| Run type                                                         ENERGY
 GLOBAL| FFT library                                                       FFTW3
 GLOBAL| Diagonalization library                                            ELPA
 GLOBAL| Minimum number of eigenvectors for ELPA usage                        16
 GLOBAL| Orthonormality check for eigenvectors                          DISABLED
 GLOBAL| Matrix multiplication library                                 ScaLAPACK
 GLOBAL| All-to-all communication in single precision                          F
 GLOBAL| FFTs using library dependent lengths                                  F
 GLOBAL| Grid backend                                                       AUTO
 GLOBAL| Global print level                                                  LOW
 GLOBAL| MPI I/O enabled                                                       T
 GLOBAL| Total number of message passing processes                           128
 GLOBAL| Number of threads for this process                                    1
 GLOBAL| This output is from process                                           0
 GLOBAL| Stack size for threads created by OpenMP (OMP_STACKSIZE)        default
 GLOBAL| CPU model name                          AMD EPYC 7742 64-Core Processor
 GLOBAL| CPUID                                                              1002

 MEMORY| system memory details [Kb]
 MEMORY|                        rank 0           min           max       average
 MEMORY| MemTotal            263266632     263266632     263266632     263266632
 MEMORY| MemFree             241246660     241246660     241246660     241246660
 MEMORY| Buffers                182216        182216        182216        182216
 MEMORY| Cached                1363564       1363564       1363564       1363564
 MEMORY| Slab                  3489440       3489440       3489440       3489440
 MEMORY| SReclaimable           996864        996864        996864        996864
 MEMORY| MemLikelyFree       243789304     243789304     243789304     243789304


 *******************************************************************************
 *******************************************************************************
 **                                                                           **
 **     #####                         ##              ##                      **
 **    ##   ##            ##          ##              ##                      **
 **   ##     ##                       ##            ######                    **
 **   ##     ##  ##   ##  ##   #####  ##  ##   ####   ##    #####    #####    **
 **   ##     ##  ##   ##  ##  ##      ## ##   ##      ##   ##   ##  ##   ##   **
 **   ##  ## ##  ##   ##  ##  ##      ####     ###    ##   ######   ######    **
 **    ##  ###   ##   ##  ##  ##      ## ##      ##   ##   ##       ##        **
 **     #######   #####   ##   #####  ##  ##  ####    ##    #####   ##        **
 **           ##                                                    ##        **
 **                                                                           **
 **                                                ... make the atoms dance   **
 **                                                                           **
 **            Copyright (C) by CP2K developers group (2000-2021)             **
 **                      J. Chem. Phys. 152, 194103 (2020)                    **
 **                                                                           **
 *******************************************************************************


 TOTAL NUMBERS AND MAXIMUM NUMBERS

  Total number of            - Atomic kinds:                                   3
                             - Atoms:                                         67
                             - Shell sets:                                    70
                             - Shells:                                       338
                             - Primitive Cartesian functions:                341
                             - Cartesian basis functions:                    938
                             - Spherical basis functions:                    872

  Maximum angular momentum of- Orbital basis functions:                        2
                             - Local part of the GTH pseudopotential:          2
                             - Non-local part of the GTH pseudopotential:      0


 SCF PARAMETERS         Density guess:                                   RESTART
                        --------------------------------------------------------
                        max_scf:                                              20
                        max_scf_history:                                       0
                        max_diis:                                              4
                        --------------------------------------------------------
                        eps_scf:                                        5.00E-07
                        eps_scf_history:                                0.00E+00
                        eps_diis:                                       1.00E-01
                        eps_eigval:                                     1.00E-05
                        --------------------------------------------------------
                        level_shift [a.u.]:                                 0.00
                        added MOs                                        20    0
                        --------------------------------------------------------
                        Mixing method:                            BROYDEN_MIXING
                                                charge density mixing in g-space
                        --------------------------------------------------------
                        Smear method:                                FERMI_DIRAC
                        Electronic temperature [K]:                        300.0
                        Electronic temperature [a.u.]:                  9.50E-04
                        Accuracy threshold:                             1.00E-10
                        --------------------------------------------------------
                        Outer loop SCF in use 
                        No variables optimised in outer loop
                        eps_scf                                         5.00E-07
                        max_scf                                               20
                        No outer loop optimization
                        step_size                                       5.00E-01

 Number of electrons:                                                        264
 Number of occupied orbitals:                                                132
 Number of molecular orbitals:                                               152

 Number of orbital functions:                                                872
 Number of independent orbital functions:                                    872

 Extrapolation method: initial_guess


 SCF WAVEFUNCTION OPTIMIZATION

  Step     Update method      Time    Convergence         Total energy    Change
  ------------------------------------------------------------------------------
     1 NoMix/Diag. 0.40E+00    0.5     0.00000129      -382.2041875692 -3.82E+02
     2 Broy./Diag. 0.40E+00    0.7     0.00000061      -382.2041892358 -1.67E-06
     3 Broy./Diag. 0.40E+00    0.8     0.00000031      -382.2041882200  1.02E-06

  *** SCF run converged in     3 steps ***


  Electronic density on regular grids:       -264.0000000000        0.0000000000
  Core density on regular grids:              263.9999999998       -0.0000000002
  Total charge density on r-space grids:       -0.0000000002
  Total charge density g-space grids:          -0.0000000002

  Overlap energy of the core charge distribution:               0.00001108883863
  Self energy of the core charge distribution:               -897.78766230971098
  Core Hamiltonian energy:                                    281.09374656269904
  Hartree energy:                                             351.23677034346400
  Exchange-correlation energy:                               -116.57236034325909
  Dispersion energy:                                           -0.17469356200069
  Electronic entropic energy:                                  -0.00000000000000
  Fermi energy:                                                -0.06307826745609

  Total energy:                                              -382.20418821996913

  outer SCF iter =    1 RMS gradient =   0.31E-06 energy =       -382.2041882200
  outer SCF loop converged in   1 iterations or    3 steps


 ENERGY| Total FORCE_EVAL ( QS ) energy [a.u.]:             -382.204188219969126

 -------------------------------------------------------------------------------
 -                                                                             -
 -                                DBCSR STATISTICS                             -
 -                                                                             -
 -------------------------------------------------------------------------------
 COUNTER                                    TOTAL       BLAS       SMM       ACC
 flops     9 x    24 x     9                15552     100.0%      0.0%      0.0%
 flops     9 x    24 x    22                19008     100.0%      0.0%      0.0%
 flops    22 x    24 x     9                19008     100.0%      0.0%      0.0%
 flops    22 x    24 x    22                23232     100.0%      0.0%      0.0%
 flops     9 x    22 x    24                38016     100.0%      0.0%      0.0%
 flops    22 x     9 x    24                38016     100.0%      0.0%      0.0%
 flops     9 x     9 x    24                46656     100.0%      0.0%      0.0%
 flops     9 x    32 x     9                82944     100.0%      0.0%      0.0%
 flops    22 x    22 x    24                92928     100.0%      0.0%      0.0%
 flops    22 x    32 x     9               101376     100.0%      0.0%      0.0%
 flops     9 x    32 x    22               101376     100.0%      0.0%      0.0%
 flops    22 x    32 x    22               123904     100.0%      0.0%      0.0%
 flops     9 x    22 x    32               202752     100.0%      0.0%      0.0%
 flops    22 x     9 x    32               202752     100.0%      0.0%      0.0%
 flops     9 x     9 x    32               248832     100.0%      0.0%      0.0%
 flops    22 x    22 x    32               495616     100.0%      0.0%      0.0%
 flops     9 x    24 x    13               718848     100.0%      0.0%      0.0%
 flops    13 x    24 x     9               718848     100.0%      0.0%      0.0%
 flops    13 x    24 x    22               878592     100.0%      0.0%      0.0%
 flops    22 x    24 x    13               878592     100.0%      0.0%      0.0%
 flops     9 x    13 x    24              1437696     100.0%      0.0%      0.0%
 flops    13 x     9 x    24              1437696     100.0%      0.0%      0.0%
 flops    22 x    13 x    24              1757184     100.0%      0.0%      0.0%
 flops    13 x    22 x    24              1757184     100.0%      0.0%      0.0%
 flops    13 x    32 x     9              3833856     100.0%      0.0%      0.0%
 flops     9 x    32 x    13              3833856     100.0%      0.0%      0.0%
 flops    22 x    32 x    13              4685824     100.0%      0.0%      0.0%
 flops    13 x    32 x    22              4685824     100.0%      0.0%      0.0%
 flops     9 x    13 x    32              7667712     100.0%      0.0%      0.0%
 flops    13 x     9 x    32              7667712     100.0%      0.0%      0.0%
 flops    22 x    13 x    32              9371648     100.0%      0.0%      0.0%
 flops    13 x    22 x    32              9371648     100.0%      0.0%      0.0%
 flops    13 x    24 x    13             33226752     100.0%      0.0%      0.0%
 flops    13 x    13 x    24             67491840     100.0%      0.0%      0.0%
 flops    13 x    32 x    13            177209344     100.0%      0.0%      0.0%
 flops    13 x    13 x    32            359956480     100.0%      0.0%      0.0%
 flops inhomo. stacks                           0       0.0%      0.0%      0.0%
 flops total                       700.439104E+06     100.0%      0.0%      0.0%
 flops max/rank                     12.663040E+06     100.0%      0.0%      0.0%
 matmuls inhomo. stacks                         0       0.0%      0.0%      0.0%
 matmuls total                              68005     100.0%      0.0%      0.0%
 number of processed stacks                  5145     100.0%      0.0%      0.0%
 average stack size                                    13.2       0.0       0.0
 marketing flops                     1.034122E+09
 -------------------------------------------------------------------------------
 # multiplications                              5
 max memory usage/rank             307.978240E+06
 # max total images/rank                        2
 # max 3D layers                                1
 # MPI messages exchanged                   18560
 MPI messages size (bytes):
  total size                       191.979520E+06
  min size                           0.000000E+00
  max size                          60.840000E+03
  average size                      10.343725E+03
 MPI breakdown and total messages size (bytes):
             size <=      128               11440                        0
       128 < size <=     8192                   0                        0
      8192 < size <=    32768                5200                100733440
     32768 < size <=   131072                1920                 91246080
    131072 < size <=  4194304                   0                        0
   4194304 < size <= 16777216                   0                        0
  16777216 < size                               0                        0
 -------------------------------------------------------------------------------

 *** WARNING in dbcsr_mm.F:294 :: Using a non-square number of MPI ranks ***
 *** might lead to poor performance. Used ranks: 128 Suggested: 121 256  ***

 -------------------------------------------------------------------------------
 -                                                                             -
 -                      DBCSR MESSAGE PASSING PERFORMANCE                      -
 -                                                                             -
 -------------------------------------------------------------------------------
 ROUTINE             CALLS      AVE VOLUME [Bytes]
 MP_Bcast               37                     12.
 MP_Allreduce          120                     21.
 MP_Alltoall           133                  50888.
 MP_ISend              320                   5897.
 MP_IRecv              320                   5177.
 -------------------------------------------------------------------------------

 -------------------------------------------------------------------------------
 -                                                                             -
 -                                GRID STATISTICS                              -
 -                                                                             -
 -------------------------------------------------------------------------------
 LP    KERNEL             BACKEND                              COUNT     PERCENT
 4     collocate ortho    REF                                 192064      51.83%
 4     integrate ortho    REF                                 144048      38.87%
 0     collocate general  REF                                   8576       2.31%
 2     collocate ortho    REF                                   7656       2.07%
 3     collocate ortho    REF                                   6356       1.72%
 2     integrate ortho    REF                                   5742       1.55%
 3     integrate ortho    REF                                   4767       1.29%
 1     collocate ortho    REF                                    456       0.12%
 1     integrate ortho    REF                                    342       0.09%
 0     collocate ortho    REF                                    320       0.09%
 0     integrate ortho    REF                                    240       0.06%
 -------------------------------------------------------------------------------

 MEMORY| Estimated peak process memory [MiB]                                 296

 -------------------------------------------------------------------------------
 -                                                                             -
 -                         MESSAGE PASSING PERFORMANCE                         -
 -                                                                             -
 -------------------------------------------------------------------------------

 ROUTINE             CALLS      AVE VOLUME [Bytes]
 MP_Group                5
 MP_Bcast              285                2284788.
 MP_Allreduce          362                   2688.
 MP_Sync                13
 MP_Alltoall            68                2686967.
 MP_SendRecv            36                 409600.
 MP_ISendRecv         2667                  24960.
 MP_Wait              3057
 MP_comm_split           4
 MP_ISend              330                 377187.
 MP_IRecv              330                 377834.
 MP_Recv                15                  69760.
 -------------------------------------------------------------------------------


 -------------------------------------------------------------------------------
 -                                                                             -
 -                           R E F E R E N C E S                               -
 -                                                                             -
 -------------------------------------------------------------------------------
 
 CP2K version 9.1, the CP2K developers group (2021).
 CP2K is freely available from https://www.cp2k.org/ .

 Kuehne,Thomas D.; Iannuzzi,Marcella; Del Ben,Mauro;
 Rybkin,Vladimir V.; Seewald,Patrick; Stein,Frederick; Laino,Teodoro;
 Khaliullin,Rustam Z.; Schuett,Ole; Schiffmann,Florian; Golze,Dorothea;
 Wilhelm,Jan; Chulkov,Sergey; Bani-Hashemian,Mohammad Hossein;
 Weber,Valery; Borstnik,Urban; Taillefumier,Mathieu;
 Jakobovits,Alice Shoshana; Lazzaro,Alfio; Pabst,Hans; Mueller,Tiziano;
 Schade,Robert; Guidon,Manuel; Andermatt,Samuel; Holmberg,Nico;
 Schenter,Gregory K.; Hehn,Anna; Bussy,Augustin; Belleflamme,Fabian;
 Tabacchi,Gloria; Gloess,Andreas; Lass,Michael; Bethune,Iain;
 Mundy,Christopher J.; Plessl,Christian; Watkins,Matt;
 VandeVondele,Joost; Krack,Matthias; Hutter,Juerg. 
 The Journal of Chemical Physics, 152 (19), (2020). 
 CP2K: An electronic structure and molecular dynamics software package -
 Quickstep: Efficient and accurate electronic structure calculations.
 https://doi.org/10.1063/5.0007045

 Goerigk, Lars; Hansen, Andreas; Bauer, Christoph; Ehrlich, Stephan;
 Najibi, Asim; Grimme, Stefan. , 19 (48), (2017). 
 A look at the density functional theory zoo with the advanced GMTKN55 database
 for general main group thermochemistry, kinetics and noncovalent interactions.
 https://doi.org/10.1039/C7CP04913G

 Schuett, Ole; Messmer, Peter; Hutter, Juerg; VandeVondele, Joost. 
 Electronic Structure Calculations on Graphics Processing Units, John
 Wiley & Sons, Ltd, 173-190 (2016). 
 GPU-Accelerated Sparse Matrix-Matrix Multiplication for
 Linear Scaling Density Functional Theory.
 https://doi.org/10.1002/9781118670712.ch8

 Borstnik, U; VandeVondele, J; Weber, V; Hutter, J. 
 PARALLEL COMPUTING, 40 (5-6), 47-58 (2014). 
 Sparse matrix multiplication: The distributed block-compressed sparse
 row library.
 https://doi.org/10.1016/j.parco.2014.03.012

 Hutter, J; Iannuzzi, M; Schiffmann, F; VandeVondele, J. 
 WIREs Comput Mol Sci., 4 (1), 15-25 (2014). 
 CP2K: atomistic simulations of condensed matter systems.
 https://doi.org/10.1002/wcms.1159

 Marek, A; Blum, V; Johanni, R; Havu, V; Lang, B; Auckenthaler, T;
 Heinecke, A; Bungartz, H; Lederer, H. 
 Journal of Physics: Condensed Matter, 26 (21), (2014). 
 The ELPA library: scalable parallel eigenvalue solutions for
 electronic structure
 theory and computational science.
 https://doi.org/10.1088/0953-8984/26/21/213201

 Grimme, S; Ehrlich, S; Goerigk, L. 
 JOURNAL OF COMPUTATIONAL CHEMISTRY, 32, 1456 (2011). 
 Effect of the damping function in dispersion corrected density functional theory.
 https://doi.org/10.1002/jcc.21759

 Grimme, S; Antony, J; Ehrlich, S; Krieg, H. 
 JOURNAL OF CHEMICAL PHYSICS, 132 (15), 154104 (2010). 
 A consistent and accurate ab initio parametrization of density
 functional dispersion correction (DFT-D) for the 94 elements H-Pu.
 https://doi.org/10.1063/1.3382344

 VandeVondele, J; Hutter, J. 
 JOURNAL OF CHEMICAL PHYSICS, 127 (11), 114105 (2007). 
 Gaussian basis sets for accurate calculations on molecular systems in
 gas and condensed phases.
 https://doi.org/10.1063/1.2770708

 Krack, M. 
 THEORETICAL CHEMISTRY ACCOUNTS, 114 (1-3), 145-152 (2005). 
 Pseudopotentials for H to Kr optimized for gradient-corrected
 exchange-correlation functionals.
 https://doi.org/10.1007/s00214-005-0655-y

 VandeVondele, J; Krack, M; Mohamed, F; Parrinello, M; Chassaing, T;
 Hutter, J. COMPUTER PHYSICS COMMUNICATIONS, 167 (2), 103-128 (2005). 
 QUICKSTEP: Fast and accurate density functional calculations using a
 mixed Gaussian and plane waves approach.
 https://doi.org/10.1016/j.cpc.2004.12.014

 Frigo, M; Johnson, SG. 
 PROCEEDINGS OF THE IEEE, 93 (2), 216-231 (2005). 
 The design and implementation of FFTW3.
 https://doi.org/10.1109/JPROC.2004.840301

 Hartwigsen, C; Goedecker, S; Hutter, J. 
 PHYSICAL REVIEW B, 58 (7), 3641-3662 (1998). 
 Relativistic separable dual-space Gaussian pseudopotentials from H to Rn.
 https://doi.org/10.1103/PhysRevB.58.3641

 Zhang, YK; Yang, WT. 
 PHYSICAL REVIEW LETTERS, 80 (4), 890-890 (1998). 
 Comment on Generalized gradient approximation made simple.
 https://doi.org/10.1103/PhysRevLett.80.890

 Lippert, G; Hutter, J; Parrinello, M. 
 MOLECULAR PHYSICS, 92 (3), 477-487 (1997). 
 A hybrid Gaussian and plane wave density functional scheme.
 https://doi.org/10.1080/002689797170220

 Perdew, JP; Burke, K; Ernzerhof, M. 
 PHYSICAL REVIEW LETTERS, 77 (18), 3865-3868 (1996). 
 Generalized gradient approximation made simple.
 https://doi.org/10.1103/PhysRevLett.77.3865

 Goedecker, S; Teter, M; Hutter, J. 
 PHYSICAL REVIEW B, 54 (3), 1703-1710 (1996). 
 Separable dual-space Gaussian pseudopotentials.
 https://doi.org/10.1103/PhysRevB.54.1703


 -------------------------------------------------------------------------------
 -                                                                             -
 -                                T I M I N G                                  -
 -                                                                             -
 -------------------------------------------------------------------------------
 SUBROUTINE                       CALLS  ASD         SELF TIME        TOTAL TIME
                                MAXIMUM       AVERAGE  MAXIMUM  AVERAGE  MAXIMUM
 CP2K                                 1  1.0    0.114    0.128    4.352    4.356
 qs_energies                          1  2.0    0.006    0.011    3.319    3.328
 scf_env_do_scf                       1  3.0    0.000    0.002    2.274    2.280
 scf_env_do_scf_inner_loop            3  4.0    0.009    0.011    2.273    2.280
 qs_ks_update_qs_env                  3  5.0    0.000    0.000    1.078    1.082
 rebuild_ks_matrix                    3  6.0    0.003    0.004    1.076    1.077
 qs_ks_build_kohn_sham_matrix         3  7.0    0.006    0.011    1.073    1.077
 rs_pw_transfer                      36  9.2    0.001    0.001    0.999    1.046
 qs_rho_update_rho                    4  5.0    0.000    0.001    1.005    1.008
 calculate_rho_elec                   4  6.0    0.004    0.005    1.005    1.008
 density_rs2pw                        4  7.0    0.003    0.004    0.763    0.801
 init_scf_run                         1  3.0    0.002    0.003    0.736    0.740
 pw_transfer                         51  8.9    0.009    0.010    0.586    0.616
 fft_wrap_pw1pw2                     45  9.9    0.001    0.002    0.565    0.596
 sum_up_and_integrate                 3  8.0    0.005    0.008    0.576    0.579
 integrate_v_rspace                   3  9.0    0.000    0.001    0.571    0.574
 scf_env_initial_rho_setup            1  4.0    0.003    0.006    0.558    0.560
 fft_wrap_pw1pw2_530                 17 10.2    0.047    0.057    0.513    0.545
 potential_pw2rs                      3 10.0    0.000    0.001    0.518    0.521
 rs_pw_transfer_RS2PW_530             5  8.6    0.209    0.244    0.434    0.475
 fft3d_ps                            45 11.9    0.212    0.232    0.441    0.468
 parser_read_line                  9939  4.0    0.004    0.004    0.443    0.456
 mp_bcast_i                          86  6.0    0.423    0.454    0.423    0.454
 parser_read_line_low                15  5.1    0.009    0.409    0.440    0.453
 broadcast_input_information         15  6.1    0.000    0.000    0.430    0.447
 mp_waitany                         330 11.1    0.339    0.433    0.339    0.433
 topology_control                     1  2.0    0.004    0.007    0.363    0.377
 qs_scf_new_mos                       3  5.0    0.001    0.003    0.353    0.356
 coordinate_control                   1  3.0    0.000    0.001    0.342    0.353
 coordinate_control_READ_COORDI       1  4.0    0.002    0.005    0.342    0.352
 read_coordinate_pdb                  1  5.0    0.003    0.005    0.340    0.348
 qs_vxc_create                        3  8.0    0.002    0.004    0.335    0.348
 xc_vxc_pw_create                     3  9.0    0.010    0.014    0.333    0.346
 cp_fm_diag_elpa                      4  7.2    0.000    0.001    0.340    0.343
 qs_init_subsys                       1  2.0    0.008    0.013    0.328    0.336
 eigensolver                          3  6.0    0.001    0.002    0.328    0.330
 qs_energies_init_hamiltonians        1  3.0    0.005    0.009    0.291    0.297
 cp_fm_redistribute_end               4  8.2    0.254    0.290    0.254    0.290
 cp_fm_diag_elpa_base                 4  8.1    0.034    0.281    0.035    0.284
 rs_pw_transfer_PW2RS_530             3 12.0    0.144    0.154    0.262    0.273
 xc_rho_set_and_dset_create           3 10.0    0.005    0.008    0.237    0.263
 mp_alltoall_z22v                    45 13.9    0.180    0.244    0.180    0.244
 grid_collocate_task_list             4  7.0    0.225    0.243    0.225    0.243
 qs_env_update_s_mstruct              1  4.0    0.000    0.001    0.219    0.232
 calculate_first_density_matrix       1  5.0    0.003    0.005    0.220    0.222
 pw_nn_compose_r                     18 10.5    0.097    0.103    0.142    0.208
 calculate_rho_core                   1  5.0    0.007    0.011    0.192    0.205
 qs_dispersion_pairpot_init           1  3.0    0.008    0.133    0.155    0.179
 xc_functional_eval                   3 11.0    0.000    0.000    0.151    0.175
 pbe_lda_eval                         3 12.0    0.151    0.175    0.151    0.175
 create_qs_kind_set                   1  2.0    0.000    0.001    0.151    0.166
 read_qs_kind                         3  3.0    0.045    0.059    0.151    0.165
 mp_waitall_1                      3287 11.5    0.131    0.157    0.131    0.157
 cp_fm_cholesky_decompose             1  4.0    0.151    0.157    0.151    0.157
 yz_to_x                             24 12.3    0.019    0.027    0.110    0.149
 qs_env_setup                         1  3.0    0.003    0.006    0.132    0.147
 mp_bcast_dv                          7  7.9    0.137    0.142    0.137    0.142
 qs_env_rebuild_pw_env                2  3.5    0.002    0.002    0.123    0.135
 x_to_yz                             21 13.5    0.025    0.030    0.113    0.133
 pw_env_rebuild                       1  5.0    0.006    0.009    0.120    0.132
 mp_sendrecv_dm2                     36 11.5    0.045    0.120    0.045    0.120
 gspace_mixing                        2  5.0    0.002    0.004    0.116    0.118
 make_basis_lowdin                    1  6.0    0.003    0.004    0.108    0.112
 pw_grid_setup                        5  6.0    0.001    0.004    0.097    0.099
 pw_grid_setup_internal               5  7.0    0.007    0.010    0.096    0.099
 read_mo_set_from_restart             1  6.0    0.007    0.089    0.089    0.092
 -------------------------------------------------------------------------------

 The number of warnings for this run is : 1
 
 -------------------------------------------------------------------------------
  **** **** ******  **  PROGRAM ENDED AT                 2025-10-22 11:38:27.294
 ***** ** ***  *** **   PROGRAM RAN ON                                 nid002114
 **    ****   ******    PROGRAM RAN BY                                xr223_ukcp
 ***** **    ** ** **   PROGRAM PROCESS ID                                251672
  **** **  *******  **  PROGRAM STOPPED IN /mnt/lustre/a2fs-work3/work/e89/e89/x
                                           r223_ukcp/BINDING-ENERGY-DARREN/bindi
                                           ng-energy/1-leg/s+0.00/d+4.25
