LAMMPS (4 Feb 2025)
OMP_NUM_THREADS environment is not set. Defaulting to 1 thread. (src/comm.cpp:99)
  using 1 OpenMP thread(s) per MPI task
# LAMMPS script for continuing NVT simulation

atom_modify map yes
newton      on

read_restart nvt_prod.restart.1120000
Reading restart file ...
  restart file = 4 Feb 2025, LAMMPS = 4 Feb 2025
  restoring atom style full from restart
  orthogonal box = (0 0 0) to (154.008 148.19427 151.07317)
  16 by 8 by 13 MPI processor grid
  pair style symmetrix/mace stores no restart info
  14640 atoms
Finding 1-2 1-3 1-4 neighbors ...
  special bond factors lj:    0        0        0       
  special bond factors coul:  0        0        0       
     0 = max # of 1-2 neighbors
     0 = max # of 1-3 neighbors
     0 = max # of 1-4 neighbors
     1 = max # of special neighbors
  special bonds CPU = 5.352 seconds
  read_restart CPU = 5.577 seconds

pair_style  symmetrix/mace
pair_coeff  * * ../../../../00-common/models/ch2o-dens-inv_swa-1-6-8.json C H O
Loading MACE model from '../../../../00-common/models/ch2o-dens-inv_swa-1-6-8.json' ... success
  mapping LAMMPS type 1 (C) to MACE type 1
  mapping LAMMPS type 2 (H) to MACE type 0
  mapping LAMMPS type 3 (O) to MACE type 2

group graphene type 1
8640 atoms in group graphene
group H2O type 2 3
6000 atoms in group H2O

thermo 1000

######### NVT production for 80 ps #############

dump DUMP1 all atom 100 nvt_prod_14.lammpstrj
timestep 0.001
fix NVT1 H2O nvt temp 300 300 0.1
Resetting global fix info from restart file:
  fix style: nvt, fix ID: NVT1
run 80000
All restart file global fix info was re-assigned
Neighbor list info ...
  update: every = 1 steps, delay = 0 steps, check = yes
  max neighbors/atom: 2000, page size: 100000
  master list distance cutoff = 8
  ghost atom cutoff = 8
  binsize = 4, bins = 39 38 38
  1 neighbor lists, perpetual/occasional/extra = 1 0 0
  (1) pair symmetrix/mace, perpetual
      attributes: full, newton on
      pair build: full/bin
      stencil: full/bin/3d
      bin: standard
Per MPI rank memory allocation (min/avg/max) = 5.934 | 6.174 | 8.699 Mbytes
   Step          Temp          E_pair         E_mol          TotEng         Press     
   1120000   122.51729     -2279872.6      0             -2279640.8      284.2302     
   1121000   121.30089     -2279873.7      0             -2279644.2      287.90721    
   1122000   121.78212     -2279864.9      0             -2279634.5      287.1547     
   1123000   122.62289     -2279876.3      0             -2279644.3      274.09752    
   1124000   123.27693     -2279872        0             -2279638.7      278.19305    
   1125000   124.74748     -2279868.2      0             -2279632.1      296.08351    
   1126000   121.88319     -2279870.8      0             -2279640.2      288.49066    
   1127000   122.32188     -2279871.7      0             -2279640.2      278.72447    
   1128000   124.72339     -2279871.7      0             -2279635.7      285.1464     
   1129000   124.63883     -2279870.7      0             -2279634.9      278.24421    
   1130000   119.03493     -2279871.4      0             -2279646.1      276.06742    
   1131000   122.93486     -2279869        0             -2279636.4      280.82999    
   1132000   123.16394     -2279877.3      0             -2279644.3      290.58906    
   1133000   123.21841     -2279867        0             -2279633.9      285.43672    
   1134000   123.94406     -2279872.3      0             -2279637.8      284.30313    
   1135000   123.23499     -2279867.7      0             -2279634.5      273.15418    
   1136000   124.25466     -2279874.4      0             -2279639.3      284.4034     
   1137000   122.96693     -2279867.3      0             -2279634.6      273.63004    
   1138000   123.60934     -2279873.3      0             -2279639.4      284.78527    
   1139000   120.95296     -2279872.8      0             -2279643.9      278.55051    
   1140000   123.70343     -2279867.6      0             -2279633.5      270.55636    
   1141000   125.00081     -2279868.7      0             -2279632.2      279.8883     
   1142000   122.03456     -2279869.5      0             -2279638.6      283.08793    
   1143000   122.86451     -2279873.6      0             -2279641.1      264.78208    
   1144000   123.42038     -2279866.7      0             -2279633.1      268.74299    
   1145000   122.75396     -2279870.6      0             -2279638.3      268.51357    
   1146000   121.68308     -2279878.4      0             -2279648.1      274.91059    
   1147000   123.91583     -2279874.7      0             -2279640.2      276.79347    
   1148000   121.88172     -2279861.2      0             -2279630.6      261.26177    
   1149000   122.99872     -2279868.8      0             -2279636        288.7424     
   1150000   123.42704     -2279872.7      0             -2279639.2      280.37076    
   1151000   119.97715     -2279877.3      0             -2279650.2      269.67508    
   1152000   121.5194      -2279871.5      0             -2279641.5      270.49388    
   1153000   125.56431     -2279879.2      0             -2279641.6      262.2983     
   1154000   125.0135      -2279869.6      0             -2279633.1      289.7714     
   1155000   124.33632     -2279875.1      0             -2279639.8      287.30774    
   1156000   124.5846      -2279880.7      0             -2279644.9      286.87752    
   1157000   122.59702     -2279871.3      0             -2279639.3      261.51413    
   1158000   124.98906     -2279873.1      0             -2279636.6      265.91495    
   1159000   124.83277     -2279874.8      0             -2279638.6      274.75049    
   1160000   122.37624     -2279872.2      0             -2279640.6      274.096      
   1161000   122.25565     -2279879.2      0             -2279647.9      294.79483    
   1162000   122.68376     -2279870.9      0             -2279638.8      277.40356    
   1163000   122.48889     -2279874.5      0             -2279642.7      281.09682    
   1164000   122.08889     -2279867.9      0             -2279636.9      259.65835    
   1165000   122.99571     -2279878.6      0             -2279645.9      274.65621    
   1166000   124.50476     -2279871.4      0             -2279635.8      288.63551    
   1167000   122.99169     -2279870.6      0             -2279637.8      275.82086    
   1168000   122.98853     -2279874.5      0             -2279641.8      277.65944    
   1169000   123.76954     -2279870.3      0             -2279636.1      289.60224    
   1170000   121.78223     -2279880.1      0             -2279649.6      266.02315    
   1171000   122.01876     -2279872.7      0             -2279641.8      281.58533    
   1172000   120.88764     -2279870        0             -2279641.3      282.13193    
   1173000   120.36963     -2279875        0             -2279647.2      270.40504    
   1174000   122.54882     -2279875.9      0             -2279644        277.36048    
   1175000   122.38284     -2279874.5      0             -2279642.9      267.10084    
   1176000   123.59466     -2279871.3      0             -2279637.4      273.08709    
   1177000   120.30348     -2279879.7      0             -2279652.1      257.07076    
   1178000   122.38603     -2279872.8      0             -2279641.2      287.42404    
   1179000   121.39672     -2279866.9      0             -2279637.1      283.97483    
   1180000   120.66858     -2279870        0             -2279641.7      262.21276    
   1181000   121.97777     -2279870.6      0             -2279639.8      271.32147    
   1182000   121.69441     -2279872        0             -2279641.7      277.41114    
   1183000   123.20234     -2279868.7      0             -2279635.5      258.31198    
   1184000   123.00717     -2279870.4      0             -2279637.6      264.96688    
   1185000   122.64116     -2279873.4      0             -2279641.3      278.07219    
   1186000   123.43321     -2279873.5      0             -2279639.9      276.63481    
   1187000   123.28871     -2279869.9      0             -2279636.6      264.96396    
   1188000   120.72001     -2279871.6      0             -2279643.1      274.10699    
   1189000   121.9051      -2279867.6      0             -2279636.9      280.0051     
   1190000   122.46374     -2279874.8      0             -2279643        279.48247    
   1191000   122.9999      -2279873.2      0             -2279640.4      272.05013    
   1192000   122.28726     -2279873.3      0             -2279641.9      272.79705    
   1193000   123.39611     -2279874.4      0             -2279640.9      274.31564    
   1194000   123.89731     -2279875.3      0             -2279640.9      280.16059    
   1195000   122.56458     -2279869.6      0             -2279637.6      269.76107    
   1196000   119.67562     -2279871.2      0             -2279644.7      282.18348    
   1197000   122.17889     -2279868        0             -2279636.8      275.15972    
   1198000   123.43016     -2279864.2      0             -2279630.7      280.907      
   1199000   124.11738     -2279863.2      0             -2279628.3      297.07222    
   1200000   123.15294     -2279873.2      0             -2279640.2      252.74176    
Loop time of 48999.3 on 1664 procs for 80000 steps with 14640 atoms

Performance: 0.141 ns/day, 170.136 hours/ns, 1.633 timesteps/s, 23.902 katom-step/s
100.0% CPU use with 1664 MPI tasks x 1 OpenMP threads

MPI task timing breakdown:
Section |  min time  |  avg time  |  max time  |%varavg| %total
---------------------------------------------------------------
Pair    | 0.12165    | 4237.5     | 48533      |15803.7 |  8.65
Bond    | 0.0031296  | 0.006354   | 0.03383    |   7.5 |  0.00
Neigh   | 0.012363   | 0.13674    | 4.7271     | 137.5 |  0.00
Comm    | 0.5599     | 1439.4     | 24030      |11284.0 |  2.94
Output  | 1.5446     | 7.9039     | 14.408     | 136.1 |  0.02
Modify  | 48.696     | 43302      | 48978      |6441.9 | 88.37
Other   |            | 12.54      |            |       |  0.03

Nlocal:        8.79808 ave         263 max           0 min
Histogram: 1513 8 103 5 6 3 4 9 2 11
Nghost:        85.8708 ave        1669 max           0 min
Histogram: 1366 100 122 23 17 15 5 4 3 9
Neighs:              0 ave           0 max           0 min
Histogram: 1664 0 0 0 0 0 0 0 0 0
FullNghs:      1110.68 ave       50606 max           0 min
Histogram: 1542 84 5 3 5 6 1 4 7 7

Total # of neighbors = 1848164
Ave neighs/atom = 126.24071
Ave special neighs/atom = 0
Neighbor list builds = 3966
Dangerous builds = 0

write_restart nvt_prod.restart.*
System init for write_restart ...
write_data nvt_prod_final.lammps-data
System init for write_data ...

Total wall time: 13:37:19
