LAMMPS (4 Feb 2025)
OMP_NUM_THREADS environment is not set. Defaulting to 1 thread. (src/comm.cpp:99)
  using 1 OpenMP thread(s) per MPI task
# LAMMPS script for continuing NVT simulation

atom_modify map yes
newton      on

read_restart nvt_prod.restart.880000
Reading restart file ...
  restart file = 4 Feb 2025, LAMMPS = 4 Feb 2025
  restoring atom style full from restart
  orthogonal box = (0 0 0) to (157.08816 151.15815 151.07317)
  16 by 8 by 8 MPI processor grid
  pair style symmetrix/mace stores no restart info
  11640 atoms
Finding 1-2 1-3 1-4 neighbors ...
  special bond factors lj:    0        0        0       
  special bond factors coul:  0        0        0       
     0 = max # of 1-2 neighbors
     0 = max # of 1-3 neighbors
     0 = max # of 1-4 neighbors
     1 = max # of special neighbors
  special bonds CPU = 5.151 seconds
  read_restart CPU = 5.391 seconds

pair_style  symmetrix/mace
pair_coeff  * * ../../../00-common/models/ch2o-dens-inv_swa-1-6-8.json C H O
Loading MACE model from '../../../00-common/models/ch2o-dens-inv_swa-1-6-8.json' ... success
  mapping LAMMPS type 1 (C) to MACE type 1
  mapping LAMMPS type 2 (H) to MACE type 0
  mapping LAMMPS type 3 (O) to MACE type 2

group graphene type 1
8640 atoms in group graphene
group H2O type 2 3
3000 atoms in group H2O

thermo 1000

######### NVT production for 80 ps #############

dump DUMP1 all atom 100 nvt_prod_11.lammpstrj
timestep 0.001
fix NVT1 graphene nvt temp 300 300 0.1
Resetting global fix info from restart file:
  fix style: nvt, fix ID: NVT1
fix NVT2 H2O nvt temp 300 300 0.1
Resetting global fix info from restart file:
  fix style: nvt, fix ID: NVT2
run 80000
All restart file global fix info was re-assigned
Neighbor list info ...
  update: every = 1 steps, delay = 0 steps, check = yes
  max neighbors/atom: 2000, page size: 100000
  master list distance cutoff = 8
  ghost atom cutoff = 8
  binsize = 4, bins = 40 38 38
  1 neighbor lists, perpetual/occasional/extra = 1 0 0
  (1) pair symmetrix/mace, perpetual
      attributes: full, newton on
      pair build: full/bin
      stencil: full/bin/3d
      bin: standard
Per MPI rank memory allocation (min/avg/max) = 5.921 | 6.202 | 8.152 Mbytes
   Step          Temp          E_pair         E_mol          TotEng         Press     
    880000   297.3844      -1809746.5      0             -1809299.1     -2970.5997    
    881000   298.52301     -1809744.7      0             -1809295.6     -2972.3047    
    882000   301.59492     -1809738        0             -1809284.3     -2961.0136    
    883000   299.35882     -1809741.9      0             -1809291.5     -2962.5586    
    884000   299.03001     -1809744.4      0             -1809294.5     -2960.6783    
    885000   301.15794     -1809745.8      0             -1809292.7     -2960.966     
    886000   304.09472     -1809739        0             -1809281.5     -2960.2934    
    887000   297.95184     -1809743.2      0             -1809294.9     -2964.001     
    888000   298.89168     -1809736.1      0             -1809286.4     -2958.8186    
    889000   300.31371     -1809743.6      0             -1809291.8     -2969.2323    
    890000   302.98181     -1809736.2      0             -1809280.3     -2955.5958    
    891000   300.6899      -1809743.3      0             -1809290.9     -2949.078     
    892000   298.53351     -1809744.1      0             -1809294.9     -2954.0923    
    893000   298.84366     -1809743.8      0             -1809294.2     -2948.7165    
    894000   300.34956     -1809743.5      0             -1809291.7     -2965.9662    
    895000   299.57234     -1809749.2      0             -1809298.5     -2949.7168    
    896000   298.32884     -1809744.7      0             -1809295.9     -2976.3624    
    897000   302.62376     -1809740.6      0             -1809285.4     -2957.6282    
    898000   299.45208     -1809745.3      0             -1809294.8     -2971.7279    
    899000   298.45809     -1809742.8      0             -1809293.8     -2976.9196    
    900000   297.47484     -1809742.2      0             -1809294.6     -2955.7475    
    901000   299.60795     -1809739.8      0             -1809289.1     -2956.8681    
    902000   301.4151      -1809742.2      0             -1809288.7     -2968.0556    
    903000   299.62084     -1809743.2      0             -1809292.4     -2963.9852    
    904000   300.32421     -1809738.9      0             -1809287       -2955.189     
    905000   304.49781     -1809744.8      0             -1809286.7     -2970.7255    
    906000   299.66192     -1809748.5      0             -1809297.7     -2957.3548    
    907000   303.26371     -1809747.7      0             -1809291.5     -2947.9764    
    908000   300.35776     -1809743.6      0             -1809291.7     -2974.6233    
    909000   303.16409     -1809742.8      0             -1809286.8     -2949.1287    
    910000   298.49402     -1809743.2      0             -1809294.2     -2963.6765    
    911000   300.89018     -1809745.4      0             -1809292.7     -2946.8146    
    912000   302.17874     -1809736.1      0             -1809281.5     -2970.5674    
    913000   304.14192     -1809748.5      0             -1809290.9     -2960.8213    
    914000   297.77112     -1809748.3      0             -1809300.3     -2960.5392    
    915000   297.11043     -1809747.7      0             -1809300.7     -2959.6179    
    916000   301.50618     -1809743.4      0             -1809289.8     -2958.217     
    917000   300.65728     -1809744        0             -1809291.7     -2968.3263    
    918000   300.49954     -1809739.4      0             -1809287.3     -2960.6416    
    919000   302.93958     -1809735.9      0             -1809280.2     -2968.3261    
    920000   298.92237     -1809744.7      0             -1809294.9     -2977.1753    
    921000   299.81175     -1809746.4      0             -1809295.4     -2980.8913    
    922000   299.52049     -1809743.6      0             -1809293       -2958.9233    
    923000   299.56057     -1809743.6      0             -1809292.9     -2954.3121    
    924000   301.01234     -1809742.3      0             -1809289.4     -2957.8755    
    925000   297.89832     -1809743.8      0             -1809295.7     -2959.7955    
    926000   302.86574     -1809738.2      0             -1809282.6     -2944.416     
    927000   299.20236     -1809739.8      0             -1809289.6     -2950.062     
    928000   299.9613      -1809742.7      0             -1809291.5     -2954.1851    
    929000   295.51651     -1809743.8      0             -1809299.2     -2971.2443    
    930000   296.84384     -1809732.8      0             -1809286.2     -2961.9984    
    931000   302.7543      -1809739        0             -1809283.5     -2953.9974    
    932000   299.47832     -1809746.1      0             -1809295.5     -2962.5284    
    933000   302.19165     -1809746.1      0             -1809291.5     -2968.3116    
    934000   301.65591     -1809738.7      0             -1809284.9     -2976.3285    
    935000   299.54308     -1809740.5      0             -1809289.9     -2965.2265    
    936000   302.95725     -1809743        0             -1809287.2     -2966.356     
    937000   301.44182     -1809739.6      0             -1809286.1     -2960.8771    
    938000   300.19099     -1809741.4      0             -1809289.8     -2966.5099    
    939000   301.05836     -1809741.3      0             -1809288.4     -2962.0077    
    940000   301.89466     -1809742.5      0             -1809288.3     -2954.5359    
    941000   299.47168     -1809745.3      0             -1809294.7     -2949.5448    
    942000   296.02366     -1809739.7      0             -1809294.3     -2962.2061    
    943000   300.15885     -1809739.4      0             -1809287.8     -2959.3074    
    944000   299.59028     -1809742.6      0             -1809291.9     -2953.1005    
    945000   300.21569     -1809744.4      0             -1809292.7     -2970.5018    
    946000   302.32412     -1809740.5      0             -1809285.7     -2954.4817    
    947000   299.29758     -1809745.2      0             -1809294.9     -2954.2914    
    948000   305.72225     -1809745.4      0             -1809285.4     -2959.7975    
    949000   301.85172     -1809739.6      0             -1809285.5     -2949.7559    
    950000   299.49202     -1809746.3      0             -1809295.7     -2955.9131    
    951000   301.3196      -1809734.8      0             -1809281.5     -2949.6637    
    952000   302.54072     -1809744.2      0             -1809289       -2962.3033    
    953000   301.24314     -1809745.6      0             -1809292.4     -2951.37      
    954000   297.39166     -1809739.7      0             -1809292.3     -2968.2721    
    955000   300.97503     -1809733.9      0             -1809281.1     -2962.2975    
    956000   297.7171      -1809741.8      0             -1809293.9     -2963.7794    
    957000   309.26257     -1809744.3      0             -1809279       -2952.1354    
    958000   302.30757     -1809742.9      0             -1809288.1     -2950.0848    
    959000   298.44971     -1809745        0             -1809296       -2959.9968    
    960000   305.24073     -1809742.9      0             -1809283.7     -2970.7668    
Loop time of 63199.7 on 1024 procs for 80000 steps with 11640 atoms

Performance: 0.109 ns/day, 219.444 hours/ns, 1.266 timesteps/s, 14.734 katom-step/s
100.0% CPU use with 1024 MPI tasks x 1 OpenMP threads

MPI task timing breakdown:
Section |  min time  |  avg time  |  max time  |%varavg| %total
---------------------------------------------------------------
Pair    | 0.31072    | 5585.7     | 36886      |12395.0 |  8.84
Bond    | 0.003178   | 0.011063   | 0.092484   |  13.2 |  0.00
Neigh   | 0.041357   | 0.21119    | 1.4952     |  51.0 |  0.00
Comm    | 0.91535    | 1983.4     | 19855      |8621.8 |  3.14
Output  | 15.332     | 19.413     | 24.329     |  59.6 |  0.03
Modify  | 12979      | 55601      | 63169      |5385.3 | 87.98
Other   |            | 9.796      |            |       |  0.02

Nlocal:        11.3672 ave         278 max           0 min
Histogram: 890 0 113 5 2 3 1 4 0 6
Nghost:        95.7812 ave        1481 max           0 min
Histogram: 751 107 136 11 3 6 3 2 3 2
Neighs:              0 ave           0 max           0 min
Histogram: 1024 0 0 0 0 0 0 0 0 0
FullNghs:      1163.07 ave       54010 max           0 min
Histogram: 996 9 4 2 1 5 1 0 2 4

Total # of neighbors = 1190984
Ave neighs/atom = 102.31821
Ave special neighs/atom = 0
Neighbor list builds = 3620
Dangerous builds = 0

write_restart nvt_prod.restart.*
System init for write_restart ...
write_data nvt_prod_final.lammps-data
System init for write_data ...

Total wall time: 17:33:46
