LAMMPS data file via write_data, version 4 Feb 2025, timestep = 960000, units = metal

11640 atoms
3 atom types

0 157.08816 xlo xhi
0 151.158152437505 ylo yhi
0 151.07316997686289 zlo zhi

Masses

1 12.01099999691024
2 1.007999999740698
3 15.99899999588435

Atoms # full

11527 0 3 0 1.7246189866183925 2.3483583063492053 0.35374026676285075 6 17 2
9435 0 2 0 1.7755881935190296 0.8794209096507803 1.0858018023496891 6 17 2
10414 0 2 0 1.0295159846837183 2.75822295077477 0.9699251366440799 6 17 2
8753 0 2 0 0.19318522401717317 0.6493399546353332 7.0018328422024165 6 17 2
10413 0 2 0 2.4356881504684336 2.9964707065442906 0.12608181546384256 6 17 2
2294 0 1 0 4.407907774829096 5.985295786787556 138.43375120604452 6 18 1
2293 0 1 0 2.9615150391586624 5.9672801609460615 138.43730294240166 6 18 1
9902 0 2 0 6.143030492714098 4.045177922475011 141.8933419251742 6 17 1
11271 0 3 0 6.08479810979511 3.193380983304184 142.29139819549545 6 17 1
2056 0 1 0 2.2256816393243413 4.71360009671327 138.43296801903065 6 18 1
2295 0 1 0 5.135952296811934 4.787115248598012 138.4479572637618 6 18 1
2290 0 1 0 4.437516197325814 3.5085767138669555 138.46395683021166 6 18 1
2289 0 1 0 2.99168950427429 3.4510002417526655 138.4096387999886 6 18 1
2534 0 1 0 8.758881405583576 5.969626504067124 138.50733093501736 6 18 1
2533 0 1 0 7.287464233376921 5.987642060915833 138.46247479825968 6 18 1
2296 0 1 0 6.591133580853532 4.722268473462332 138.45408969321767 6 18 1
2535 0 1 0 9.463419180098011 4.726016669630402 138.3976143078918 6 18 1
2529 0 1 0 7.304673677487301 3.4709244110588826 138.44748877243208 6 18 1
2530 0 1 0 8.72202486828602 3.488174674521302 138.35053596935677 6 18 1
2298 0 1 0 4.419448005177384 8.487707171729749 138.65082437978205 6 18 1
2297 0 1 0 2.9386558226567927 8.47212974109482 138.69231986462216 6 18 1
2060 0 1 0 2.167628607854781 7.22442765696595 138.59306841795268 6 18 1
2299 0 1 0 5.128197686609198 7.258535475865384 138.519592470563 6 18 1
2302 0 1 0 4.3962402650567896 10.938929038168668 138.66957739133525 6 18 1
2303 0 1 0 5.142737035008383 9.715222990756958 138.64872098641843 6 18 1
2301 0 1 0 2.9879184366240805 10.937945955553085 138.74011835375597 6 18 1
2064 0 1 0 2.2041382598929364 9.733667284117843 138.75584724763547 6 18 1
2300 0 1 0 6.553762789988766 7.228296717772495 138.43277343015336 6 18 1
2537 0 1 0 7.353185322626142 8.461903894175885 138.53210394869262 6 18 1
2538 0 1 0 8.767504885042156 8.470045095111123 138.59118303524028 6 18 1
2539 0 1 0 9.475836777340238 7.216824027096044 138.5036282178035 6 18 1
2304 0 1 0 6.5970161209271305 9.71675514751351 138.5994425879708 6 18 1
2541 0 1 0 7.283487847748012 11.004713164305132 138.58463160916725 6 18 1
2542 0 1 0 8.76810892657631 11.014587678763599 138.43641679599304 6 18 1
2543 0 1 0 9.442377046120367 9.76285849540975 138.49238287519438 6 18 1
2306 0 1 0 4.371325003399509 13.485428670534503 138.6284635303295 6 18 1
2307 0 1 0 5.120273364460178 12.232909010338668 138.71907511371091 6 18 1
2305 0 1 0 2.9477143625363884 13.503808181198702 138.72271865397914 6 18 1
2068 0 1 0 2.2296628620714523 12.210731655818028 138.7646095584915 6 18 1
2072 0 1 0 2.2520802449604975 14.708173837234556 138.60839075717382 6 18 1
2310 0 1 0 4.322554334018008 15.953529021560819 138.5005939105417 6 18 1
2311 0 1 0 5.069466132082075 14.746218589818005 138.55046724173968 6 18 1
2309 0 1 0 2.8987937129935735 15.97728611698125 138.56856037205137 6 18 1
2308 0 1 0 6.6085577423494195 12.245756496105168 138.57105860710482 6 18 1
2545 0 1 0 7.306751391298169 13.554188262065164 138.5773415220598 6 18 1
2546 0 1 0 8.726967933983385 13.564183510747128 138.46428302803082 6 18 1
2547 0 1 0 9.490116648482749 12.259095716620651 138.48683084933208 6 18 1
2312 0 1 0 6.506520870388825 14.778385066397949 138.4976719512249 6 18 1
2549 0 1 0 7.248258869080781 15.98699562129754 138.52262674571546 6 18 1
2550 0 1 0 8.689023246025595 16.04982253816992 138.55657007604196 6 18 1
2551 0 1 0 9.454016033934993 14.800914172907222 138.4430733599379 6 18 1
2076 0 1 0 2.2071929571441875 17.26460991778129 138.38959523277737 6 18 1
2314 0 1 0 4.394850518101534 18.52912871477935 138.45189061884994 6 18 1
2315 0 1 0 5.054693751590275 17.286485770530327 138.46573896518788 6 18 1
2313 0 1 0 2.8728617577152 18.56831238449873 138.3593467163843 6 18 1
8988 0 2 0 3.088040460195083 3.929880850692214 148.15303073746645 6 17 1
11036 0 3 0 5.095199992722644 2.0835778532570393 144.48842242877737 6 17 1
2292 0 1 0 6.559935075640907 2.2067735221564897 138.40728721937415 6 18 1
9487 0 2 0 4.964009879221673 3.182983606477696 150.80831390502152 6 17 1
2316 0 1 0 6.531109790022865 17.270852297670128 138.48456350944957 6 18 1
2553 0 1 0 7.25251400271327 18.539167336833245 138.44977627630593 6 18 1
2554 0 1 0 8.738174978827443 18.57838389805778 138.43612072055592 6 18 1
2555 0 1 0 9.460940136244885 17.29555620913076 138.44657646966053 6 18 1
9863 0 2 0 7.237555674039633 1.4669105026073557 142.35301161915032 6 17 1
10814 0 3 0 2.226250975380145 3.9610295120086256 147.64175217982253 6 17 1
10946 0 3 0 2.2779550266223803 3.3102709943592297 144.92491456919143 6 17 1
9432 0 2 0 5.650952475088129 2.647906459349714 143.84141811689474 6 17 1
9543 0 2 0 0.4306631369257904 3.8108956586365514 144.7394428095137 6 17 1
9901 0 2 0 5.234138380582576 2.78678329147023 141.90075754562483 6 17 1
9174 0 2 0 2.937370307437383 2.9657115529994185 141.78682363352002 6 17 1
10907 0 3 0 3.6428406150722297 2.272217932792073 141.9333253808527 6 17 1
9173 0 2 0 3.8055050835701967 2.221840807839653 142.91368227592892 6 17 1
2291 0 1 0 5.112113444700455 2.2176997617533587 138.37241442662688 6 18 1
2052 0 1 0 2.2078461651531684 2.1743988184439726 138.41933499120896 6 18 1
9251 0 2 0 2.316976725861364 3.7104793132513976 145.82273640822476 6 17 1
2531 0 1 0 9.43026818606193 2.1665710903253106 138.39283970308622 6 18 1
2075 0 1 0 0.7508152955792873 17.28915822587505 138.3432253425331 6 18 1
2055 0 1 0 0.7643245054222246 4.687713018776703 138.4318882453431 6 18 1
11064 0 3 0 4.383238216988623 3.0606280387374882 150.05641531154996 6 17 1
9252 0 2 0 2.129818277889864 2.4030413397831434 145.12784469583556 6 17 1
2063 0 1 0 0.7565344004801008 9.71845293893319 138.74528568409295 6 18 1
2067 0 1 0 0.7565304924003657 12.217330021564907 138.7276736464406 6 18 1
2071 0 1 0 0.7868708478754337 14.749577203696884 138.5151947965371 6 18 1
2059 0 1 0 0.7486165579728049 7.2099196206558 138.56745975222998 6 18 1
2051 0 1 0 0.7699295653408456 2.165087510328491 138.48979156131873 6 18 1
9431 0 2 0 4.412107923943064 2.6876024859027052 144.90720177656803 6 17 1
8987 0 2 0 1.680637798469232 3.188228869813444 148.02723276050187 6 17 1
11252 0 3 0 7.2899356907343735 0.48290193070163306 142.46014308648978 6 17 1
2525 0 1 0 7.244117315531302 0.9306293194948688 138.3686824268817 6 18 1
2526 0 1 0 8.714548250350408 0.940138630984832 138.36949151349333 6 18 1
9488 0 2 0 4.341950533927175 2.118352358084543 149.88091838127144 6 17 1
2286 0 1 0 4.377945894074646 0.9743954004675768 138.28145036264402 6 18 1
2285 0 1 0 2.958086273197575 0.9574068897791769 138.30978455565568 6 18 1
11378 0 3 0 1.5653631878782766 4.0580310839150195 141.63432878659577 6 17 1
10116 0 2 0 1.4866515818908648 4.451793626608149 142.5687073950787 6 17 1
11431 0 3 0 1.459217336928775 0.6564061247807623 145.07407563494115 6 17 1
9861 0 2 0 1.1739877182779168 1.6919753254236176 149.86601850282452 6 17 1
11251 0 3 0 1.0489687901248226 1.5357839425690174 148.8830333644524 6 17 1
9975 0 2 0 5.967835806159184 0.8747999215756539 145.74076877924765 6 17 1
10115 0 2 0 0.6862879705350565 4.327971259634879 141.25351523038023 6 17 1
11308 0 3 0 6.224491432708549 0.16215304242328443 146.37165367165628 6 17 1
10171 0 2 0 2.479254342029505 0.5701149303930245 141.04417052096628 6 17 1
9864 0 2 0 8.181261962398752 0.17524444553494598 142.53804492691563 6 17 1
10172 0 2 0 1.7793515519067888 0.29083666989064927 142.4197583566721 6 17 1
11269 0 3 0 3.8290445569845404 0.16578866688264476 149.9294866865356 6 17 1
10518 0 2 0 8.889388517590962 0.3934833349934663 148.6327695396362 6 17 1
10222 0 2 0 0.6469708049308599 0.3310053406213065 144.759257372232 6 17 1
9897 0 2 0 2.8347787010000385 0.22958533439297873 149.87704147068777 6 17 1
2054 0 1 0 0.056256489020554655 5.944108201473181 138.52520380968753 6 18 1
2058 0 1 0 0.024251215145357094 8.470431779862897 138.6377746795216 6 18 1
2046 0 1 0 0.04837009190916423 0.9034322157820087 138.58257542181573 6 18 1
2070 0 1 0 0.013466983173814 16.01036488407671 138.46084657421048 6 18 1
2074 0 1 0 0.0036697268860038084 18.50836994797882 138.2899817307617 6 18 1
9862 0 2 0 0.12297056973651128 1.6007995577612497 148.67992009865213 6 17 1
2062 0 1 0 0.019300555577387968 10.986015141441953 138.69619709690588 6 18 1
2066 0 1 0 0.03320740260411981 13.516709488071276 138.6281100209864 6 18 1
2327 0 1 0 4.979292377662291 24.799386742423014 138.3195899064375 6 18 1
2088 0 1 0 2.129158595736202 24.821112255786034 138.4907821095729 6 18 1
2323 0 1 0 5.00932711627046 22.2612297370655 138.4615447403941 6 18 1
2321 0 1 0 2.834117553130933 23.567580475965162 138.54449068868348 6 18 1
2084 0 1 0 2.0937100013510808 22.327614297155755 138.38912240546708 6 18 1
2322 0 1 0 4.3045013618069214 23.55800168878192 138.45661954929838 6 18 1
2328 0 1 0 6.426036366593587 24.76400355090444 138.2872701060131 6 18 1
2567 0 1 0 9.419848117517969 24.879983723515203 138.34956352611374 6 18 1
2324 0 1 0 6.496429363533414 22.263736278347952 138.39331595436389 6 18 1
2563 0 1 0 9.394549285098671 22.32934968343269 138.40683868503248 6 18 1
2561 0 1 0 7.247321127651146 23.526492012980267 138.37668008648401 6 18 1
2562 0 1 0 8.673742647478788 23.610082917736136 138.38167695034525 6 18 1
2331 0 1 0 5.0479230771214265 27.335946440164246 138.2454598300338 6 18 1
2325 0 1 0 2.8355446631218935 26.08861486047345 138.31474517606335 6 18 1
2092 0 1 0 2.128919936686251 27.357034994954606 138.37633046993952 6 18 1
2326 0 1 0 4.309392330387753 26.06546480624814 138.26795606978507 6 18 1
2335 0 1 0 5.019345136093928 29.844959411310118 138.3349189775982 6 18 1
2330 0 1 0 4.302736001872602 28.54840372920879 138.22219475768833 6 18 1
2329 0 1 0 2.803053506727429 28.579401248806963 138.29027239526488 6 18 1
2096 0 1 0 2.0542842721140167 29.81189480479689 138.35334724004102 6 18 1
2332 0 1 0 6.474042665918192 27.3873818819681 138.14650995785135 6 18 1
2571 0 1 0 9.378327912698492 27.388958528444004 138.36247024159724 6 18 1
2566 0 1 0 8.64120507336803 26.10646492253598 138.2910819846104 6 18 1
2565 0 1 0 7.144716024073382 26.083199328469714 138.30185404200589 6 18 1
2336 0 1 0 6.507758321993188 29.825184511321048 138.29529942162853 6 18 1
2569 0 1 0 7.229116637070986 28.579046738301862 138.16654140496678 6 18 1
2575 0 1 0 9.431432126956855 29.864533195032006 138.29757107731666 6 18 1
2570 0 1 0 8.694086918896899 28.619012863628633 138.1573336972496 6 18 1
2334 0 1 0 4.293238805952371 31.096083671444404 138.46180770281313 6 18 1
2339 0 1 0 4.963817553492718 32.41476827041771 138.52001607263367 6 18 1
2333 0 1 0 2.8338358673925446 31.088310886063002 138.4487881871738 6 18 1
2100 0 1 0 2.1177334757294055 32.373095458343386 138.37698762286718 6 18 1
2343 0 1 0 4.977643126696583 34.95919475393865 138.42603408794258 6 18 1
2338 0 1 0 4.2571711246152875 33.68968942431097 138.51133804468458 6 18 1
2337 0 1 0 2.812438027265722 33.64673130052616 138.4185285405791 6 18 1
2104 0 1 0 2.1084339086464543 34.91476416429408 138.44596801434184 6 18 1
2340 0 1 0 6.418988007105854 32.43186437940156 138.47669221768152 6 18 1
2573 0 1 0 7.179274754848517 31.12320723801754 138.3415278134461 6 18 1
2579 0 1 0 9.338179521917327 32.43754611201555 138.22280006014591 6 18 1
2574 0 1 0 8.651696096538364 31.156120116079816 138.27868491582103 6 18 1
2344 0 1 0 6.385566160363992 34.89305144547199 138.45153322854054 6 18 1
2577 0 1 0 7.1251561135646595 33.64895043934971 138.38606901142475 6 18 1
2578 0 1 0 8.587655078795304 33.680450651036466 138.21102706146684 6 18 1
2583 0 1 0 9.279568742489234 34.909093657308674 138.26744244768324 6 18 1
2347 0 1 0 5.006025554540039 37.443932864363816 138.46622866881003 6 18 1
2342 0 1 0 4.232652934388257 36.201882925645016 138.44392095346882 6 18 1
2341 0 1 0 2.7948531916599153 36.167243743099014 138.49421593363832 6 18 1
2108 0 1 0 2.103715613002092 37.43108522769847 138.51562590669332 6 18 1
2558 0 1 0 8.675019303581662 21.08868282377932 138.38988154109103 6 18 1
2095 0 1 0 0.6230449756410689 29.88587162493085 138.21612834414864 6 18 1
2559 0 1 0 9.425999948780289 19.839584154934627 138.4627794841029 6 18 1
2317 0 1 0 2.8861981645523254 21.053229556968304 138.4420152435774 6 18 1
2557 0 1 0 7.231025002876304 21.014457862690918 138.39594636740486 6 18 1
2083 0 1 0 0.685570631224128 22.331443212508834 138.42550316211705 6 18 1
2107 0 1 0 0.6857350095967546 37.429808621266666 138.46582287906702 6 18 1
2348 0 1 0 6.437249469081949 37.443079688301914 138.388767073402 6 18 1
2581 0 1 0 7.150815554231108 36.15487851845838 138.3950338830469 6 18 1
2582 0 1 0 8.555303367726577 36.151882006617406 138.27738825827873 6 18 1
2587 0 1 0 9.312773592469139 37.43292593515918 138.29959415592467 6 18 1
2318 0 1 0 4.336461069519154 21.021158762695713 138.49870228880664 6 18 1
2099 0 1 0 0.6637752423325356 32.41435005851682 138.32465000335998 6 18 1
2087 0 1 0 0.6407888773313554 24.84778472384092 138.44065072724683 6 18 1
2103 0 1 0 0.6505892451349298 34.915620248815195 138.36379119861712 6 18 1
2091 0 1 0 0.6475572542835726 27.38957809188407 138.42425099766487 6 18 1
2319 0 1 0 5.093492461451332 19.767424451655923 138.5220620994512 6 18 1
2080 0 1 0 2.121399080393358 19.810197515780626 138.36439431392606 6 18 1
2320 0 1 0 6.537242060530154 19.770908556336657 138.47802975827102 6 18 1
2079 0 1 0 0.6713599145678294 19.816685763185742 138.31180987726577 6 18 1
2353 0 1 0 2.886335437346956 43.82142894128994 138.5091541570149 6 18 1
2354 0 1 0 4.3483710138699765 43.77066116363239 138.3797888799689 6 18 1
2350 0 1 0 4.27260012893165 41.250633027355455 138.41183667553594 6 18 1
2116 0 1 0 2.1355412947598915 42.53742477648773 138.5464427328551 6 18 1
2349 0 1 0 2.8768766841067004 41.25053616191738 138.46490311936117 6 18 1
2355 0 1 0 5.037897260849574 42.48669558653475 138.35903621496567 6 18 1
2593 0 1 0 7.161874057709092 43.76244324754267 138.29027190987986 6 18 1
2594 0 1 0 8.599108844158337 43.77413920394028 138.23857696849592 6 18 1
2590 0 1 0 8.658462653731537 41.184790144806826 138.3421440309939 6 18 1
2589 0 1 0 7.199294514917889 41.219553286355 138.29959453363458 6 18 1
2356 0 1 0 6.5278733449570545 42.48505919807493 138.31036373983684 6 18 1
2595 0 1 0 9.352637696188888 42.479758200435136 138.21802255094724 6 18 1
2358 0 1 0 4.313977039559653 46.270070569440094 138.58169784688937 6 18 1
2357 0 1 0 2.868859065814236 46.28753605682908 138.52111803105797 6 18 1
2120 0 1 0 2.0913392819639145 45.0482713545594 138.56715560031682 6 18 1
2359 0 1 0 5.06118839138991 45.04961614584404 138.53193064054494 6 18 1
2362 0 1 0 4.341670462155955 48.810855718623564 138.42909764948863 6 18 1
2363 0 1 0 5.055168342912646 47.53067429338068 138.49068968924362 6 18 1
2361 0 1 0 2.872165720900552 48.78516126784233 138.46851859196786 6 18 1
2124 0 1 0 2.138009282761316 47.527568680817495 138.51409006902287 6 18 1
2360 0 1 0 6.475257893851569 45.03653173990299 138.40271385203238 6 18 1
2597 0 1 0 7.208534646781143 46.28123882610324 138.3412953632239 6 18 1
2598 0 1 0 8.62847808735201 46.34201031147609 138.28648870129695 6 18 1
2599 0 1 0 9.376131301105993 45.0509856532414 138.2164572681037 6 18 1
2364 0 1 0 6.488159029559073 47.55405937074909 138.42979973549407 6 18 1
2601 0 1 0 7.229935587980362 48.83056864714138 138.40488392949464 6 18 1
2602 0 1 0 8.695052573029765 48.80493464949636 138.30405530056316 6 18 1
2603 0 1 0 9.424478901031987 47.53115477247932 138.3093402869734 6 18 1
2366 0 1 0 4.305425534355199 51.300335029380406 138.22648682186136 6 18 1
2367 0 1 0 5.068815681354442 50.056140308200746 138.30730837930682 6 18 1
2365 0 1 0 2.8962373824190593 51.32868744238979 138.3558168933178 6 18 1
2128 0 1 0 2.148024969490701 50.034784939817705 138.4521238623227 6 18 1
2371 0 1 0 5.049292546815428 52.55115173894467 138.17988912138202 6 18 1
2370 0 1 0 4.327159790244493 53.81268034031738 138.2239106054169 6 18 1
2369 0 1 0 2.872128485012881 53.80037310339501 138.17544495485367 6 18 1
2132 0 1 0 2.145242939666221 52.57658968927522 138.3045726164421 6 18 1
2368 0 1 0 6.527787495677313 50.09488644358844 138.26107873076936 6 18 1
2605 0 1 0 7.256869544442241 51.328935185707834 138.13047826338476 6 18 1
2606 0 1 0 8.698143931746268 51.28611262968482 138.10234473558106 6 18 1
2607 0 1 0 9.389412381943085 50.03380233859206 138.1270660432114 6 18 1
2372 0 1 0 6.520323553231017 52.55866477478322 138.11764666818647 6 18 1
2609 0 1 0 7.255039559442185 53.84316832323574 138.19482647187445 6 18 1
2610 0 1 0 8.695700763042424 53.777161928094756 138.1164641168415 6 18 1
2611 0 1 0 9.426745617514198 52.53094350831663 137.95446432134133 6 18 1
2136 0 1 0 2.1112650878541577 55.03455069157954 138.16056797694856 6 18 1
2375 0 1 0 5.0555429569129275 55.08035234619621 138.24893408085046 6 18 1
2374 0 1 0 4.289309375252643 56.33451292693588 138.15975050597496 6 18 1
2373 0 1 0 2.8619431495435883 56.30684435423646 138.1570514148197 6 18 1
2115 0 1 0 0.7144614918671829 42.51787909723556 138.55632162880568 6 18 1
2585 0 1 0 7.169137712005617 38.72414133758339 138.36056340567563 6 18 1
2346 0 1 0 4.2648924674520075 38.71937970352677 138.4318764245108 6 18 1
2591 0 1 0 9.348697209181617 39.935688153551496 138.31692502750755 6 18 1
2376 0 1 0 6.544908248131306 55.09605585249282 138.19860601188878 6 18 1
2131 0 1 0 0.6983104627832769 52.579889926954216 138.29751910724258 6 18 1
2613 0 1 0 7.263492718167631 56.30659050943392 138.14895304014158 6 18 1
2614 0 1 0 8.737137040410323 56.34101578198506 138.04871207510368 6 18 1
2615 0 1 0 9.405842355470122 55.03799011497154 137.99171221004153 6 18 1
2351 0 1 0 5.027733963617811 39.953505778365724 138.32876240083223 6 18 1
2352 0 1 0 6.473533768293352 39.98194552768617 138.27939788330593 6 18 1
2112 0 1 0 2.1658463984520893 39.980444253319966 138.6479525581093 6 18 1
2135 0 1 0 0.663435750051472 55.07996059900714 138.2421404215265 6 18 1
2111 0 1 0 0.7165203020358293 39.97583785645332 138.59699316243206 6 18 1
2119 0 1 0 0.6201684626516865 45.02072308020291 138.54719064677 6 18 1
2123 0 1 0 0.6661104271448314 47.519293748690494 138.4830948620918 6 18 1
2127 0 1 0 0.6622391849707755 50.06925377715707 138.5089779846082 6 18 1
2586 0 1 0 8.606144160597905 38.6670853740454 138.3651444898612 6 18 1
2345 0 1 0 2.83757280502414 38.756977459341094 138.53900075108672 6 18 1
2106 0 1 0 0.010328480366695203 38.711371865243215 138.51649278304717 6 18 1
2148 0 1 0 2.131918162766934 62.61189241819009 138.18789578591606 6 18 1
2387 0 1 0 5.068831168224543 62.63730475452475 138.1657316633556 6 18 1
2144 0 1 0 2.1576914895558867 60.169103985190816 138.17886240251764 6 18 1
2383 0 1 0 5.119751665851075 60.11467002977862 138.28433005487034 6 18 1
2381 0 1 0 2.887981019632141 61.356462705522674 138.11317269234203 6 18 1
2382 0 1 0 4.3824575763401965 61.36882882264744 138.18916310749853 6 18 1
2388 0 1 0 6.5147566816646245 62.663783942439814 138.1912820620464 6 18 1
2384 0 1 0 6.5772909809428945 60.153269395714204 138.1619465824169 6 18 1
2627 0 1 0 9.37160343625079 62.64009489536879 138.07121077915528 6 18 1
2622 0 1 0 8.671143341639794 61.33887150042419 138.07281926164234 6 18 1
2623 0 1 0 9.375658107519245 60.126962535223896 138.07678691068838 6 18 1
2621 0 1 0 7.250201444113285 61.3829343860503 138.1232696863425 6 18 1
2391 0 1 0 5.062156476127168 65.19516889065046 138.21895212761282 6 18 1
2152 0 1 0 2.118788965915984 65.1252806645065 138.2564615228533 6 18 1
2385 0 1 0 2.8702003913161636 63.85193290845145 138.24341498434023 6 18 1
2386 0 1 0 4.351920220431864 63.92490426828502 138.23776958544823 6 18 1
2395 0 1 0 5.026096178679508 67.71032112243071 138.1052537203698 6 18 1
2390 0 1 0 4.3587897798978625 66.45460099197206 138.2290351819413 6 18 1
2389 0 1 0 2.822945167929385 66.39459670671778 138.15032508765617 6 18 1
2156 0 1 0 2.1449407105897045 67.68840885900202 138.1681223275509 6 18 1
2392 0 1 0 6.5103192396568845 65.15517603046973 138.2202372407408 6 18 1
2631 0 1 0 9.415763803733322 65.16895411217865 138.1099394412642 6 18 1
2626 0 1 0 8.701861249715607 63.86654090797384 138.07693377160976 6 18 1
2625 0 1 0 7.226888161347481 63.90395310408023 138.13691395668317 6 18 1
2396 0 1 0 6.489720025507647 67.73659043891526 138.07073818278909 6 18 1
2629 0 1 0 7.226589611731295 66.42405411866221 138.129581519376 6 18 1
2630 0 1 0 8.677295759195793 66.44722604168805 138.13411553399916 6 18 1
2635 0 1 0 9.3480279125158 67.71132938027858 138.1352397431022 6 18 1
2399 0 1 0 5.07017298853413 70.24841257047271 138.05383918028232 6 18 1
2394 0 1 0 4.339059063531843 68.95652990434755 138.0694016629155 6 18 1
2393 0 1 0 2.851062670038531 68.95244706600077 138.0851625688747 6 18 1
2160 0 1 0 2.0894779303911566 70.21847695261698 138.15531886196644 6 18 1
2163 0 1 0 5.029239012818737 72.76386756107675 138.18464372523007 6 17 1
2398 0 1 0 4.298890438746867 71.46152200867084 138.08593937097396 6 18 1
2397 0 1 0 2.8143135405456463 71.47003595478895 138.13892571710258 6 18 1
1924 0 1 0 2.1423742455837465 72.78584522337091 138.34379092780134 6 17 1
2400 0 1 0 6.532889456931318 70.25735763811878 138.04311625626306 6 18 1
2633 0 1 0 7.259083821552178 68.95771833710026 138.0613429046822 6 18 1
2639 0 1 0 9.402828191555903 70.23989474858544 138.10217857332805 6 18 1
2634 0 1 0 8.673922280279442 68.97419637417714 138.0784252387092 6 18 1
2164 0 1 0 6.459394989902702 72.77183124203935 138.14131930159172 6 17 1
2637 0 1 0 7.193771185225407 71.53029864002382 138.08211921205523 6 18 1
2638 0 1 0 8.618152533071338 71.47189707452497 138.14099960099063 6 18 1
2403 0 1 0 9.373024232528426 72.6875806371703 138.11206144533273 6 17 1
2167 0 1 0 5.074991877806841 75.29323788199143 138.16451862739396 6 17 1
2162 0 1 0 4.3540376044869475 74.04139648512229 138.16905679290969 6 17 1
2161 0 1 0 2.8624238162700557 74.04690540944618 138.29621953970369 6 17 1
1928 0 1 0 2.117549901731372 75.28785962967214 138.41935325366686 6 17 1
2140 0 1 0 2.1456845368256388 57.57230724915365 138.10892888990918 6 18 1
2619 0 1 0 9.448014392913509 57.6401406384181 138.04591760545304 6 18 1
2155 0 1 0 0.6426878800604193 67.7066374534854 138.19500881183512 6 18 1
2618 0 1 0 8.70374632415728 58.84395113209699 138.16811736072944 6 18 1
2151 0 1 0 0.6809987167274959 65.14584160769888 138.24618262287683 6 18 1
2407 0 1 0 9.344751761103119 75.25015347743224 138.1210962874249 6 17 1
2168 0 1 0 6.4937827987109955 75.2870845791207 138.18389573816194 6 17 1
2401 0 1 0 7.161774287390176 74.0097690736552 138.1716318760983 6 17 1
2402 0 1 0 8.623651673557791 74.00950492727777 138.1593747364142 6 17 1
2617 0 1 0 7.2500898937686165 58.88296557543517 138.1368763636775 6 18 1
2378 0 1 0 4.363260903840463 58.79518675606154 138.16655511078432 6 18 1
2377 0 1 0 2.8746011153125623 58.83390820777017 138.10481705869154 6 18 1
2147 0 1 0 0.664237678490737 62.61330385739802 138.24799162838198 6 18 1
2159 0 1 0 0.6748811357128509 70.2355432783026 138.27302662072722 6 18 1
2143 0 1 0 0.6413833641632465 60.10787309758396 138.13579199706717 6 18 1
1923 0 1 0 0.679899278489111 72.76218944114693 138.4076118284796 6 17 1
1927 0 1 0 0.6758920721121818 75.29803525589378 138.46473900887514 6 17 1
2379 0 1 0 5.06268691089577 57.5411641634684 138.11772676537242 6 18 1
2380 0 1 0 6.51815566125646 57.58069143456827 138.14920320238315 6 18 1
2139 0 1 0 0.6857014856869142 57.58434064086235 138.14500730982456 6 18 1
2174 0 1 0 4.250172733374384 81.5721788997515 138.3190979943994 6 17 1
2173 0 1 0 2.8481940927027223 81.5790574177329 138.29435898836215 6 17 1
2175 0 1 0 4.966923284498596 80.32044800876895 138.25609864810033 6 17 1
1936 0 1 0 2.08701665910356 80.37314160912007 138.37242292384732 6 17 1
2170 0 1 0 4.25259956884931 79.05343572671076 138.32743046672593 6 17 1
2169 0 1 0 2.7905450722660237 79.12282934691524 138.35712133668068 6 17 1
2413 0 1 0 7.169197911801278 81.64397959302369 138.34312734792198 6 17 1
2414 0 1 0 8.63692710438631 81.57497347568786 138.39376164502823 6 17 1
2410 0 1 0 8.649930602531677 79.06257760762121 138.34409416383892 6 17 1
2409 0 1 0 7.181585716960658 79.07205983903201 138.30205866495666 6 17 1
2415 0 1 0 9.316110874050047 80.28724935152565 138.36430006094116 6 17 1
2176 0 1 0 6.441153293847238 80.35188481923097 138.31027702769902 6 17 1
2178 0 1 0 4.283128922096577 84.11470166671472 138.47478075020373 6 17 1
2177 0 1 0 2.8120703374624783 84.09944672646455 138.37823210659926 6 17 1
1940 0 1 0 2.1043461708957385 82.84773083085463 138.3389907577732 6 17 1
2179 0 1 0 4.988023512051185 82.86892882231727 138.322875012184 6 17 1
2182 0 1 0 4.215204911441728 86.58443326050882 138.36201769460638 6 17 1
2183 0 1 0 4.981306250611574 85.35901148898192 138.4350213905054 6 17 1
2181 0 1 0 2.7863737283063537 86.56479572104301 138.30535532527168 6 17 1
1944 0 1 0 2.0248723033190728 85.34905814371001 138.29529645646625 6 17 1
2180 0 1 0 6.43996522262218 82.85633650015444 138.34005944729378 6 17 1
2417 0 1 0 7.150535678831901 84.09918175109131 138.38756686077352 6 17 1
2418 0 1 0 8.66055894325058 84.0824055148342 138.45554337571667 6 17 1
2419 0 1 0 9.364307975390282 82.84780073636574 138.42312901162788 6 17 1
2184 0 1 0 6.427339077840215 85.38584595279058 138.49542486300263 6 17 1
2421 0 1 0 7.172917053769507 86.61014359155294 138.42936079712396 6 17 1
2422 0 1 0 8.63391701142872 86.6201439574748 138.40224046726425 6 17 1
2423 0 1 0 9.357816124989862 85.3716901432037 138.42957910217896 6 17 1
1948 0 1 0 2.0643528687500687 87.85244168472691 138.42572163059862 6 17 1
2186 0 1 0 4.236802004256952 89.141133034374 138.45818396168852 6 17 1
2187 0 1 0 4.90795865145463 87.821616946894 138.44098688280087 6 17 1
2185 0 1 0 2.8229911028216983 89.1280249661543 138.35170948679843 6 17 1
2191 0 1 0 4.90513572049194 90.38963802592332 138.41572494050317 6 17 1
2190 0 1 0 4.266233084821922 91.64666554781428 138.3850159583054 6 17 1
2189 0 1 0 2.815868167847285 91.62349481196055 138.3145301667956 6 17 1
1952 0 1 0 2.0850262514638405 90.35761046859776 138.29234672643102 6 17 1
2188 0 1 0 6.358413015066965 87.87046914693056 138.440747872323 6 17 1
2425 0 1 0 7.108469104984302 89.12045915542808 138.3969621419734 6 17 1
2426 0 1 0 8.586781099109249 89.10087463117661 138.40881856734796 6 17 1
2427 0 1 0 9.326982024113608 87.84171522176595 138.47831791982696 6 17 1
2192 0 1 0 6.383934224386801 90.3638715467934 138.37060178159322 6 17 1
2429 0 1 0 7.105725881110685 91.56916072638113 138.3151873130947 6 17 1
2430 0 1 0 8.591621584448793 91.62600426555967 138.37999722082037 6 17 1
2431 0 1 0 9.325137663964902 90.3892783789784 138.46504780861395 6 17 1
2195 0 1 0 5.045371132142158 92.90795324482217 138.42143574005138 6 17 1
2194 0 1 0 4.2789733318768635 94.13659834896666 138.40744658099663 6 17 1
2193 0 1 0 2.8076848468411963 94.16131719568962 138.31977060779334 6 17 1
1956 0 1 0 2.0692204801152525 92.87352890604713 138.27905415348457 6 17 1
1943 0 1 0 0.6072141658667324 85.32592643473465 138.30466058971157 6 17 1
2406 0 1 0 8.632199335102698 76.52827107121043 138.24678748523712 6 17 1
1939 0 1 0 0.6141692882477251 82.8826545592065 138.37743354854518 6 17 1
1947 0 1 0 0.6347852852790368 87.84633136998784 138.422611110372 6 17 1
2435 0 1 0 9.326488326036822 92.85679570607661 138.30076713669757 6 17 1
2196 0 1 0 6.460655476099026 92.8763969339049 138.2461241706647 6 17 1
2433 0 1 0 7.207272438969503 94.15648240284196 138.15594375741279 6 17 1
2434 0 1 0 8.665313563846189 94.13233685968406 138.14664118807096 6 17 1
2411 0 1 0 9.357718648548992 77.78454906591034 138.263816342259 6 17 1
1932 0 1 0 2.0825365990881854 77.79957191684713 138.4428389128009 6 17 1
2172 0 1 0 6.476669379481402 77.81999901162835 138.3245145916757 6 17 1
2171 0 1 0 5.010477499013399 77.84007306130988 138.30013348038426 6 17 1
1955 0 1 0 0.6367838123957541 92.89421553006315 138.26136333131032 6 17 1
1935 0 1 0 0.6603423263431223 80.35413705663126 138.3584988883471 6 17 1
1931 0 1 0 0.658261192311193 77.76901242368714 138.48472248822526 6 17 1
1951 0 1 0 0.63374329144495 90.37893271175459 138.46889744635837 6 17 1
2405 0 1 0 7.177825251570349 76.57226524258232 138.35389085557 6 17 1
2165 0 1 0 2.8421369030845445 76.55917017483326 138.39602075724716 6 17 1
2166 0 1 0 4.270209785843662 76.56590082565003 138.30507262098814 6 17 1
1968 0 1 0 2.1212675117145112 100.49080312160403 138.2863616629886 6 17 1
2207 0 1 0 5.035724164621391 100.49950609849061 138.23465409964507 6 17 1
2201 0 1 0 2.8372473773407236 99.24100554883479 138.20524268635842 6 17 1
2202 0 1 0 4.321006865596069 99.20410395671553 138.2685810663473 6 17 1
1964 0 1 0 2.1310885580730474 98.013356493245 138.1485440548653 6 17 1
2203 0 1 0 5.035321686120635 97.92527660282119 138.30980070182991 6 17 1
2208 0 1 0 6.496953189831976 100.43781070108636 138.36179200835565 6 17 1
2447 0 1 0 9.391404635425951 100.52166993638113 138.28648466239386 6 17 1
2441 0 1 0 7.228444199530359 99.1695667108594 138.27220002380108 6 17 1
2443 0 1 0 9.400858067879295 98.01554598043627 138.26859951638286 6 17 1
2204 0 1 0 6.514781995461072 97.93401393878759 138.24266787452868 6 17 1
2442 0 1 0 8.691378478790208 99.22431007106555 138.23442023454396 6 17 1
2211 0 1 0 5.054457754791104 102.94516076753838 138.26362478244758 6 17 1
2205 0 1 0 2.8241083695283424 101.72803776655694 138.24763748881944 6 17 1
2206 0 1 0 4.290140280568362 101.73964705391965 138.2214716781451 6 17 1
1972 0 1 0 2.1657692359426743 103.03580996563338 138.28269752715892 6 17 1
2215 0 1 0 5.063091010371044 105.49070994495226 138.2200462249709 6 17 1
2210 0 1 0 4.31407982149677 104.24199156383222 138.1976749449555 6 17 1