 DBCSR| CPU Multiplication driver                                           BLAS
 DBCSR| Multrec recursion limit                                              512
 DBCSR| Multiplication stack size                                           1000
 DBCSR| Maximum elements for images                                    UNLIMITED
 DBCSR| Multiplicative factor virtual images                                   1
 DBCSR| Use multiplication densification                                       T
 DBCSR| Multiplication size stacks                                             3
 DBCSR| Use memory pool for CPU allocation                                     F
 DBCSR| Number of 3D layers                                               SINGLE
 DBCSR| Use MPI memory allocation                                              F
 DBCSR| Use RMA algorithm                                                      F
 DBCSR| Use Communication thread                                               T
 DBCSR| Communication thread load                                             87
 DBCSR| MPI: My node id                                                        0
 DBCSR| MPI: Number of nodes                                                 128
 DBCSR| OMP: Current number of threads                                         1
 DBCSR| OMP: Max number of threads                                             1
 DBCSR| Split modifier for TAS multiplication algorithm                  1.0E+00


  **** **** ******  **  PROGRAM STARTED AT               2025-10-22 11:31:03.958
 ***** ** ***  *** **   PROGRAM STARTED ON                             nid004056
 **    ****   ******    PROGRAM STARTED BY                            xr223_ukcp
 ***** **    ** ** **   PROGRAM PROCESS ID                                122987
  **** **  *******  **  PROGRAM STARTED IN /mnt/lustre/a2fs-work3/work/e89/e89/x
                                           r223_ukcp/BINDING-ENERGY-DARREN/bindi
                                           ng-energy/0-leg/s+0.00/d+4.25

 CP2K| version string:                                          CP2K version 9.1
 CP2K| source code revision number:                                  git:d8d7100
 CP2K| cp2kflags: omp libint fftw3 libxc elpa parallel mpi3 scalapack plumed2 mk
 CP2K|            l
 CP2K| is freely available from                            https://www.cp2k.org/
 CP2K| Program compiled at                       Thu 08 Jun 2023 08:54:13 AM BST
 CP2K| Program compiled on                                                  ln03
 CP2K| Program compiled for                                              ARCHER2
 CP2K| Data directory path       /work/y07/shared/apps/core/cp2k/cp2k-9.1.0/data
 CP2K| Input file name                                              cp2k_sub.inp

 GLOBAL| Force Environment number                                              1
 GLOBAL| Basis set file name                                      GTH_BASIS_SETS
 GLOBAL| Potential file name                                           POTENTIAL
 GLOBAL| MM Potential file name                                     MM_POTENTIAL
 GLOBAL| Coordinate file name                                           init.pdb
 GLOBAL| Method name                                                        CP2K
 GLOBAL| Project name                                                    MAT-H2O
 GLOBAL| Run type                                                         ENERGY
 GLOBAL| FFT library                                                       FFTW3
 GLOBAL| Diagonalization library                                            ELPA
 GLOBAL| Minimum number of eigenvectors for ELPA usage                        16
 GLOBAL| Orthonormality check for eigenvectors                          DISABLED
 GLOBAL| Matrix multiplication library                                 ScaLAPACK
 GLOBAL| All-to-all communication in single precision                          F
 GLOBAL| FFTs using library dependent lengths                                  F
 GLOBAL| Grid backend                                                       AUTO
 GLOBAL| Global print level                                                  LOW
 GLOBAL| MPI I/O enabled                                                       T
 GLOBAL| Total number of message passing processes                           128
 GLOBAL| Number of threads for this process                                    1
 GLOBAL| This output is from process                                           0
 GLOBAL| Stack size for threads created by OpenMP (OMP_STACKSIZE)        default
 GLOBAL| CPU model name                          AMD EPYC 7742 64-Core Processor
 GLOBAL| CPUID                                                              1002

 MEMORY| system memory details [Kb]
 MEMORY|                        rank 0           min           max       average
 MEMORY| MemTotal            263266864     263266864     263266864     263266864
 MEMORY| MemFree             241511788     241511788     241511788     241511788
 MEMORY| Buffers                181748        181748        181748        181748
 MEMORY| Cached                1332904       1332904       1332904       1332904
 MEMORY| Slab                  3295468       3295468       3295468       3295468
 MEMORY| SReclaimable           953424        953424        953424        953424
 MEMORY| MemLikelyFree       243979864     243979864     243979864     243979864


 *******************************************************************************
 *******************************************************************************
 **                                                                           **
 **     #####                         ##              ##                      **
 **    ##   ##            ##          ##              ##                      **
 **   ##     ##                       ##            ######                    **
 **   ##     ##  ##   ##  ##   #####  ##  ##   ####   ##    #####    #####    **
 **   ##     ##  ##   ##  ##  ##      ## ##   ##      ##   ##   ##  ##   ##   **
 **   ##  ## ##  ##   ##  ##  ##      ####     ###    ##   ######   ######    **
 **    ##  ###   ##   ##  ##  ##      ## ##      ##   ##   ##       ##        **
 **     #######   #####   ##   #####  ##  ##  ####    ##    #####   ##        **
 **           ##                                                    ##        **
 **                                                                           **
 **                                                ... make the atoms dance   **
 **                                                                           **
 **            Copyright (C) by CP2K developers group (2000-2021)             **
 **                      J. Chem. Phys. 152, 194103 (2020)                    **
 **                                                                           **
 *******************************************************************************


 TOTAL NUMBERS AND MAXIMUM NUMBERS

  Total number of            - Atomic kinds:                                   3
                             - Atoms:                                         67
                             - Shell sets:                                    70
                             - Shells:                                       338
                             - Primitive Cartesian functions:                341
                             - Cartesian basis functions:                    938
                             - Spherical basis functions:                    872

  Maximum angular momentum of- Orbital basis functions:                        2
                             - Local part of the GTH pseudopotential:          2
                             - Non-local part of the GTH pseudopotential:      0


 SCF PARAMETERS         Density guess:                                   RESTART
                        --------------------------------------------------------
                        max_scf:                                              20
                        max_scf_history:                                       0
                        max_diis:                                              4
                        --------------------------------------------------------
                        eps_scf:                                        5.00E-07
                        eps_scf_history:                                0.00E+00
                        eps_diis:                                       1.00E-01
                        eps_eigval:                                     1.00E-05
                        --------------------------------------------------------
                        level_shift [a.u.]:                                 0.00
                        added MOs                                        20    0
                        --------------------------------------------------------
                        Mixing method:                            BROYDEN_MIXING
                                                charge density mixing in g-space
                        --------------------------------------------------------
                        Smear method:                                FERMI_DIRAC
                        Electronic temperature [K]:                        300.0
                        Electronic temperature [a.u.]:                  9.50E-04
                        Accuracy threshold:                             1.00E-10
                        --------------------------------------------------------
                        Outer loop SCF in use 
                        No variables optimised in outer loop
                        eps_scf                                         5.00E-07
                        max_scf                                               20
                        No outer loop optimization
                        step_size                                       5.00E-01

 Number of electrons:                                                        264
 Number of occupied orbitals:                                                132
 Number of molecular orbitals:                                               152

 Number of orbital functions:                                                872
 Number of independent orbital functions:                                    872

 Extrapolation method: initial_guess

 *** WARNING in qs_initial_guess.F:309 :: User requested to restart the    ***
 *** wavefunction from the file named: MAT-H2O-RESTART.wfn. This file does ***
 *** not exist. Please check the existence of the file or change properly  ***
 *** the value of the keyword WFN_RESTART_FILE_NAME. Calculation continues ***
 *** using ATOMIC GUESS.                                                   ***



 SCF WAVEFUNCTION OPTIMIZATION

  Step     Update method      Time    Convergence         Total energy    Change
  ------------------------------------------------------------------------------
     1 NoMix/Diag. 0.40E+00    0.6     0.95998920      -379.5636859733 -3.80E+02
     2 Broy./Diag. 0.40E+00    0.8     0.34079406      -368.7423960030  1.08E+01
     3 Broy./Diag. 0.40E+00    0.8     0.02516845      -378.4297496329 -9.69E+00
     4 Broy./Diag. 0.40E+00    0.8     0.00998964      -382.3095704696 -3.88E+00
     5 Broy./Diag. 0.40E+00    0.8     0.00493161      -382.4914134588 -1.82E-01
     6 Broy./Diag. 0.40E+00    0.8     0.00148584      -382.1965699592  2.95E-01
     7 Broy./Diag. 0.40E+00    0.8     0.00119874      -382.1631410042  3.34E-02
     8 Broy./Diag. 0.40E+00    0.8     0.00177689      -382.1798970326 -1.68E-02
     9 Broy./Diag. 0.40E+00    0.8     0.00115890      -382.1853096350 -5.41E-03
    10 Broy./Diag. 0.40E+00    0.8     0.00043677      -382.1986306201 -1.33E-02
    11 Broy./Diag. 0.40E+00    0.8     0.00065584      -382.1991348261 -5.04E-04
    12 Broy./Diag. 0.40E+00    0.8     0.00010660      -382.2017906987 -2.66E-03
    13 Broy./Diag. 0.40E+00    0.8     0.00010430      -382.2028865223 -1.10E-03
    14 Broy./Diag. 0.40E+00    0.8     0.00008706      -382.2027783961  1.08E-04
    15 Broy./Diag. 0.40E+00    0.8     0.00003700      -382.2027737905  4.61E-06
    16 Broy./Diag. 0.40E+00    0.8     0.00001222      -382.2028820245 -1.08E-04
    17 Broy./Diag. 0.40E+00    0.8     0.00000689      -382.2029370880 -5.51E-05
    18 Broy./Diag. 0.40E+00    0.8     0.00000689      -382.2029274799  9.61E-06
    19 Broy./Diag. 0.40E+00    0.8     0.00000130      -382.2029370564 -9.58E-06
    20 Broy./Diag. 0.40E+00    0.8     0.00000115      -382.2029459302 -8.87E-06

  Leaving inner SCF loop after reaching    20 steps.


  Electronic density on regular grids:       -264.0000000000        0.0000000000
  Core density on regular grids:              263.9999999998       -0.0000000002
  Total charge density on r-space grids:       -0.0000000002
  Total charge density g-space grids:          -0.0000000002

  Overlap energy of the core charge distribution:               0.00001108938960
  Self energy of the core charge distribution:               -897.78766230971098
  Core Hamiltonian energy:                                    281.09424832575388
  Hartree energy:                                             351.23614503772154
  Exchange-correlation energy:                               -116.57212667072660
  Dispersion energy:                                           -0.17356140266096
  Electronic entropic energy:                                  -0.00000000000000
  Fermi energy:                                                -0.05828820631692

  Total energy:                                              -382.20294593023351

  outer SCF iter =    1 RMS gradient =   0.12E-05 energy =       -382.2029459302
     1 Broy./Diag. 0.40E+00    1.5     0.00000037      -382.2029415948  4.34E-06

  *** SCF run converged in     1 steps ***


  Electronic density on regular grids:       -264.0000000000        0.0000000000
  Core density on regular grids:              263.9999999998       -0.0000000002
  Total charge density on r-space grids:       -0.0000000002
  Total charge density g-space grids:          -0.0000000002

  Overlap energy of the core charge distribution:               0.00001108938960
  Self energy of the core charge distribution:               -897.78766230971098
  Core Hamiltonian energy:                                    281.09424652036552
  Hartree energy:                                             351.23614953465176
  Exchange-correlation energy:                               -116.57212502682542
  Dispersion energy:                                           -0.17356140266096
  Electronic entropic energy:                                  -0.00000000000000
  Fermi energy:                                                -0.05828843883532

  Total energy:                                              -382.20294159479045

  outer SCF iter =    2 RMS gradient =   0.37E-06 energy =       -382.2029415948
  outer SCF loop converged in   2 iterations or   21 steps


 ENERGY| Total FORCE_EVAL ( QS ) energy [a.u.]:             -382.202941594790445

 -------------------------------------------------------------------------------
 -                                                                             -
 -                                DBCSR STATISTICS                             -
 -                                                                             -
 -------------------------------------------------------------------------------
 COUNTER                                    TOTAL       BLAS       SMM       ACC
 flops     9 x    22 x    24               199584     100.0%      0.0%      0.0%
 flops    22 x     9 x    24               199584     100.0%      0.0%      0.0%
 flops     9 x     9 x    24               244944     100.0%      0.0%      0.0%
 flops    22 x    22 x    24               487872     100.0%      0.0%      0.0%
 flops     9 x    22 x    32              1064448     100.0%      0.0%      0.0%
 flops    22 x     9 x    32              1064448     100.0%      0.0%      0.0%
 flops     9 x     9 x    32              1306368     100.0%      0.0%      0.0%
 flops    22 x    22 x    32              2601984     100.0%      0.0%      0.0%
 flops     9 x    13 x    24              7547904     100.0%      0.0%      0.0%
 flops    13 x     9 x    24              7547904     100.0%      0.0%      0.0%
 flops    22 x    13 x    24              9225216     100.0%      0.0%      0.0%
 flops    13 x    22 x    24              9225216     100.0%      0.0%      0.0%
 flops     9 x    13 x    32             40255488     100.0%      0.0%      0.0%
 flops    13 x     9 x    32             40255488     100.0%      0.0%      0.0%
 flops    22 x    13 x    32             49201152     100.0%      0.0%      0.0%
 flops    13 x    22 x    32             49201152     100.0%      0.0%      0.0%
 flops    13 x    13 x    24            354332160     100.0%      0.0%      0.0%
 flops    13 x    13 x    32           1889771520     100.0%      0.0%      0.0%
 flops inhomo. stacks                           0       0.0%      0.0%      0.0%
 flops total                         2.463732E+09     100.0%      0.0%      0.0%
 flops max/rank                     32.200896E+06     100.0%      0.0%      0.0%
 matmuls inhomo. stacks                         0       0.0%      0.0%      0.0%
 matmuls total                             239190     100.0%      0.0%      0.0%
 number of processed stacks                 21525     100.0%      0.0%      0.0%
 average stack size                                    11.1       0.0       0.0
 marketing flops                     4.215569E+09
 -------------------------------------------------------------------------------
 # multiplications                             21
 max memory usage/rank             343.085056E+06
 # max total images/rank                        2
 # max 3D layers                                1
 # MPI messages exchanged                   77952
 MPI messages size (bytes):
  total size                       489.882624E+06
  min size                           0.000000E+00
  max size                          29.952000E+03
  average size                       6.284414E+03
 MPI breakdown and total messages size (bytes):
             size <=      128               53592                        0
       128 < size <=     8192                   0                        0
      8192 < size <=    32768               24360                489882624
     32768 < size <=   131072                   0                        0
    131072 < size <=  4194304                   0                        0
   4194304 < size <= 16777216                   0                        0
  16777216 < size                               0                        0
 -------------------------------------------------------------------------------

 *** WARNING in dbcsr_mm.F:294 :: Using a non-square number of MPI ranks ***
 *** might lead to poor performance. Used ranks: 128 Suggested: 121 256  ***

 -------------------------------------------------------------------------------
 -                                                                             -
 -                      DBCSR MESSAGE PASSING PERFORMANCE                      -
 -                                                                             -
 -------------------------------------------------------------------------------
 ROUTINE             CALLS      AVE VOLUME [Bytes]
 MP_Bcast               19                     12.
 MP_Allreduce          203                     12.
 MP_Alltoall           600                  51903.
 MP_ISend             1344                   3590.
 MP_IRecv             1344                   2683.
 -------------------------------------------------------------------------------

 -------------------------------------------------------------------------------
 -                                                                             -
 -                                GRID STATISTICS                              -
 -                                                                             -
 -------------------------------------------------------------------------------
 LP    KERNEL             BACKEND                              COUNT     PERCENT
 4     collocate ortho    REF                                1056176      47.50%
 4     integrate ortho    REF                                1008168      45.34%
 2     collocate ortho    REF                                  39270       1.77%
 2     integrate ortho    REF                                  37485       1.69%
 3     collocate ortho    REF                                  33572       1.51%
 3     integrate ortho    REF                                  32046       1.44%
 0     collocate general  REF                                   8576       0.39%
 1     collocate ortho    REF                                   2508       0.11%
 1     integrate ortho    REF                                   2394       0.11%
 0     collocate ortho    REF                                   1760       0.08%
 0     integrate ortho    REF                                   1680       0.08%
 -------------------------------------------------------------------------------

 MEMORY| Estimated peak process memory [MiB]                                 328

 -------------------------------------------------------------------------------
 -                                                                             -
 -                         MESSAGE PASSING PERFORMANCE                         -
 -                                                                             -
 -------------------------------------------------------------------------------

 ROUTINE             CALLS      AVE VOLUME [Bytes]
 MP_Group                5
 MP_Bcast              176                3693879.
 MP_Allreduce          603                   1631.
 MP_Sync                47
 MP_Alltoall           337                3371229.
 MP_SendRecv           252                 409600.
 MP_ISendRecv        16383                  24960.
 MP_Wait             18645
 MP_comm_split          21
 MP_ISend             1914                 367209.
 MP_IRecv             1914                 367321.
 MP_Recv                15                  69760.
 -------------------------------------------------------------------------------


 -------------------------------------------------------------------------------
 -                                                                             -
 -                           R E F E R E N C E S                               -
 -                                                                             -
 -------------------------------------------------------------------------------
 
 CP2K version 9.1, the CP2K developers group (2021).
 CP2K is freely available from https://www.cp2k.org/ .

 Kuehne,Thomas D.; Iannuzzi,Marcella; Del Ben,Mauro;
 Rybkin,Vladimir V.; Seewald,Patrick; Stein,Frederick; Laino,Teodoro;
 Khaliullin,Rustam Z.; Schuett,Ole; Schiffmann,Florian; Golze,Dorothea;
 Wilhelm,Jan; Chulkov,Sergey; Bani-Hashemian,Mohammad Hossein;
 Weber,Valery; Borstnik,Urban; Taillefumier,Mathieu;
 Jakobovits,Alice Shoshana; Lazzaro,Alfio; Pabst,Hans; Mueller,Tiziano;
 Schade,Robert; Guidon,Manuel; Andermatt,Samuel; Holmberg,Nico;
 Schenter,Gregory K.; Hehn,Anna; Bussy,Augustin; Belleflamme,Fabian;
 Tabacchi,Gloria; Gloess,Andreas; Lass,Michael; Bethune,Iain;
 Mundy,Christopher J.; Plessl,Christian; Watkins,Matt;
 VandeVondele,Joost; Krack,Matthias; Hutter,Juerg. 
 The Journal of Chemical Physics, 152 (19), (2020). 
 CP2K: An electronic structure and molecular dynamics software package -
 Quickstep: Efficient and accurate electronic structure calculations.
 https://doi.org/10.1063/5.0007045

 Goerigk, Lars; Hansen, Andreas; Bauer, Christoph; Ehrlich, Stephan;
 Najibi, Asim; Grimme, Stefan. , 19 (48), (2017). 
 A look at the density functional theory zoo with the advanced GMTKN55 database
 for general main group thermochemistry, kinetics and noncovalent interactions.
 https://doi.org/10.1039/C7CP04913G

 Schuett, Ole; Messmer, Peter; Hutter, Juerg; VandeVondele, Joost. 
 Electronic Structure Calculations on Graphics Processing Units, John
 Wiley & Sons, Ltd, 173-190 (2016). 
 GPU-Accelerated Sparse Matrix-Matrix Multiplication for
 Linear Scaling Density Functional Theory.
 https://doi.org/10.1002/9781118670712.ch8

 Borstnik, U; VandeVondele, J; Weber, V; Hutter, J. 
 PARALLEL COMPUTING, 40 (5-6), 47-58 (2014). 
 Sparse matrix multiplication: The distributed block-compressed sparse
 row library.
 https://doi.org/10.1016/j.parco.2014.03.012

 Hutter, J; Iannuzzi, M; Schiffmann, F; VandeVondele, J. 
 WIREs Comput Mol Sci., 4 (1), 15-25 (2014). 
 CP2K: atomistic simulations of condensed matter systems.
 https://doi.org/10.1002/wcms.1159

 Marek, A; Blum, V; Johanni, R; Havu, V; Lang, B; Auckenthaler, T;
 Heinecke, A; Bungartz, H; Lederer, H. 
 Journal of Physics: Condensed Matter, 26 (21), (2014). 
 The ELPA library: scalable parallel eigenvalue solutions for
 electronic structure
 theory and computational science.
 https://doi.org/10.1088/0953-8984/26/21/213201

 Grimme, S; Ehrlich, S; Goerigk, L. 
 JOURNAL OF COMPUTATIONAL CHEMISTRY, 32, 1456 (2011). 
 Effect of the damping function in dispersion corrected density functional theory.
 https://doi.org/10.1002/jcc.21759

 Grimme, S; Antony, J; Ehrlich, S; Krieg, H. 
 JOURNAL OF CHEMICAL PHYSICS, 132 (15), 154104 (2010). 
 A consistent and accurate ab initio parametrization of density
 functional dispersion correction (DFT-D) for the 94 elements H-Pu.
 https://doi.org/10.1063/1.3382344

 VandeVondele, J; Hutter, J. 
 JOURNAL OF CHEMICAL PHYSICS, 127 (11), 114105 (2007). 
 Gaussian basis sets for accurate calculations on molecular systems in
 gas and condensed phases.
 https://doi.org/10.1063/1.2770708

 Krack, M. 
 THEORETICAL CHEMISTRY ACCOUNTS, 114 (1-3), 145-152 (2005). 
 Pseudopotentials for H to Kr optimized for gradient-corrected
 exchange-correlation functionals.
 https://doi.org/10.1007/s00214-005-0655-y

 VandeVondele, J; Krack, M; Mohamed, F; Parrinello, M; Chassaing, T;
 Hutter, J. COMPUTER PHYSICS COMMUNICATIONS, 167 (2), 103-128 (2005). 
 QUICKSTEP: Fast and accurate density functional calculations using a
 mixed Gaussian and plane waves approach.
 https://doi.org/10.1016/j.cpc.2004.12.014

 Frigo, M; Johnson, SG. 
 PROCEEDINGS OF THE IEEE, 93 (2), 216-231 (2005). 
 The design and implementation of FFTW3.
 https://doi.org/10.1109/JPROC.2004.840301

 Hartwigsen, C; Goedecker, S; Hutter, J. 
 PHYSICAL REVIEW B, 58 (7), 3641-3662 (1998). 
 Relativistic separable dual-space Gaussian pseudopotentials from H to Rn.
 https://doi.org/10.1103/PhysRevB.58.3641

 Zhang, YK; Yang, WT. 
 PHYSICAL REVIEW LETTERS, 80 (4), 890-890 (1998). 
 Comment on Generalized gradient approximation made simple.
 https://doi.org/10.1103/PhysRevLett.80.890

 Lippert, G; Hutter, J; Parrinello, M. 
 MOLECULAR PHYSICS, 92 (3), 477-487 (1997). 
 A hybrid Gaussian and plane wave density functional scheme.
 https://doi.org/10.1080/002689797170220

 Perdew, JP; Burke, K; Ernzerhof, M. 
 PHYSICAL REVIEW LETTERS, 77 (18), 3865-3868 (1996). 
 Generalized gradient approximation made simple.
 https://doi.org/10.1103/PhysRevLett.77.3865

 Goedecker, S; Teter, M; Hutter, J. 
 PHYSICAL REVIEW B, 54 (3), 1703-1710 (1996). 
 Separable dual-space Gaussian pseudopotentials.
 https://doi.org/10.1103/PhysRevB.54.1703


 -------------------------------------------------------------------------------
 -                                                                             -
 -                                T I M I N G                                  -
 -                                                                             -
 -------------------------------------------------------------------------------
 SUBROUTINE                       CALLS  ASD         SELF TIME        TOTAL TIME
                                MAXIMUM       AVERAGE  MAXIMUM  AVERAGE  MAXIMUM
 CP2K                                 1  1.0    0.110    0.120   18.204   18.208
 qs_energies                          1  2.0    0.006    0.010   17.557   17.565
 scf_env_do_scf                       1  3.0    0.002    0.004   16.677   16.683
 scf_env_do_scf_inner_loop           21  4.0    0.008    0.010   16.674   16.681
 qs_ks_update_qs_env                 21  5.0    0.001    0.001    7.272    7.277
 rebuild_ks_matrix                   21  6.0    0.003    0.004    7.267    7.270
 qs_ks_build_kohn_sham_matrix        21  7.0    0.010    0.015    7.265    7.268
 rs_pw_transfer                     216  9.4    0.004    0.006    5.140    5.326
 qs_rho_update_rho                   22  5.0    0.000    0.002    5.224    5.227
 calculate_rho_elec                  22  6.0    0.020    0.022    5.224    5.227
 density_rs2pw                       22  7.0    0.004    0.005    3.913    4.115
 sum_up_and_integrate                21  8.0    0.023    0.028    3.788    3.792
 integrate_v_rspace                  21  9.0    0.001    0.002    3.765    3.776
 pw_transfer                        320  9.0    0.062    0.072    3.417    3.579
 potential_pw2rs                     21 10.0    0.003    0.003    3.423    3.435
 fft_wrap_pw1pw2                    278 10.0    0.003    0.005    3.274    3.433
 fft_wrap_pw1pw2_530                106 10.2    0.284    0.333    3.004    3.142
 fft3d_ps                           278 12.0    1.370    1.519    2.523    2.661
 qs_vxc_create                       21  8.0    0.003    0.005    2.401    2.480
 xc_vxc_pw_create                    21  9.0    0.065    0.088    2.397    2.477
 qs_scf_new_mos                      21  5.0    0.003    0.005    2.241    2.247
 gspace_mixing                       19  5.0    0.018    0.021    2.213    2.215
 eigensolver                         21  6.0    0.003    0.004    2.080    2.083
 rs_pw_transfer_RS2PW_530            23  8.9    1.044    1.194    1.711    1.884
 cp_fm_diag_elpa                     21  7.0    0.000    0.000    1.847    1.857
 xc_rho_set_and_dset_create          21 10.0    0.037    0.050    1.722    1.832
 cp_fm_redistribute_end              21  8.0    1.592    1.823    1.594    1.824
 mp_waitany                        1914 11.4    1.280    1.814    1.280    1.814
 cp_fm_diag_elpa_base                21  8.0    0.222    1.785    0.225    1.806
 rs_pw_transfer_PW2RS_530            21 12.0    1.108    1.155    1.720    1.761
 broyden_mixing                      19  6.0    1.602    1.637    1.641    1.655
 pw_nn_compose_r                    126 10.5    0.679    0.725    0.989    1.486
 grid_collocate_task_list            22  7.0    1.231    1.324    1.231    1.324
 xc_functional_eval                  21 11.0    0.000    0.001    1.103    1.211
 pbe_lda_eval                        21 12.0    1.102    1.211    1.102    1.211
 mp_alltoall_z22v                   278 14.0    0.865    1.209    0.865    1.209
 mp_sendrecv_dm2                    252 11.5    0.310    0.873    0.310    0.873
 mp_waitall_1                     19083 11.5    0.681    0.788    0.681    0.788
 yz_to_x                            132 12.5    0.105    0.147    0.513    0.738
 x_to_yz                            146 13.5    0.173    0.207    0.630    0.690
 init_scf_run                         1  3.0    0.002    0.004    0.576    0.579
 rs_pw_transfer_PW2RS_180            21 12.0    0.198    0.213    0.416    0.500
 mp_sum_d                           587  3.4    0.237    0.418    0.237    0.418
 scf_env_initial_rho_setup            1  4.0    0.003    0.007    0.399    0.401
 pw_poisson_solve                    21  8.0    0.145    0.154    0.370    0.373
 -------------------------------------------------------------------------------

 The number of warnings for this run is : 2
 
 -------------------------------------------------------------------------------
  **** **** ******  **  PROGRAM ENDED AT                 2025-10-22 11:31:27.857
 ***** ** ***  *** **   PROGRAM RAN ON                                 nid004056
 **    ****   ******    PROGRAM RAN BY                                xr223_ukcp
 ***** **    ** ** **   PROGRAM PROCESS ID                                122987
  **** **  *******  **  PROGRAM STOPPED IN /mnt/lustre/a2fs-work3/work/e89/e89/x
                                           r223_ukcp/BINDING-ENERGY-DARREN/bindi
                                           ng-energy/0-leg/s+0.00/d+4.25
