(written by ASE)

11040 atoms
3 atom types

0.0      154.00799999999998  xlo xhi
0.0      148.19999999999999  ylo yhi
0.0      151.07609208607428  zlo zhi

Masses

     1      12.010999996910238 # C
     2      1.0079999997406979 # H
     3      15.998999995884349 # O

Atoms # full

     1   0   1   0.0      27.402659050082701       2.724601281338896      46.773160084475315
     2   0   1   0.0      15.201398170121079     -8.5097201008678081      46.569860050655329
     3   0   1   0.0      27.389036010763373     -7.1736450577898845      47.047102752649423
     4   0   1   0.0       15.25451220619091     -6.0138974911319645      46.447447162827075
     5   0   1   0.0      27.368250238449889     -4.7025735837895306      47.229413810571081
     6   0   1   0.0      15.301738552671914     -3.6071658268707254      46.482295873741556
     7   0   1   0.0      27.367469493601579     -2.2762500706795166      47.027168208883978
     8   0   1   0.0      15.235116030181246     -1.1407418048965257      46.501644948585337
     9   0   1   0.0      27.389557493013065     0.23697874280427259      46.912365572007197
    10   0   1   0.0      15.213769173331327      1.3852069177573343      46.577299800557029
    11   0   1   0.0      16.653869639990656     -8.5141915815571618      46.701601414565474
    12   0   1   0.0      17.389428608619717     -7.2568670574935989      46.666396837780397
    13   0   1   0.0      16.719902661963197     -6.0315885703062708      46.457984826578702
    14   0   1   0.0      17.430452859301731     -4.8050653021897727      46.520021490540195
    15   0   1   0.0      16.700288368229238     -3.5955783747502101      46.464989895611907
    16   0   1   0.0      17.384647088048652     -2.2886930136475971      46.480787995107164
    17   0   1   0.0      16.706978165238354     -1.0713045811787343      46.503841370091195
    18   0   1   0.0      17.402954575457048     0.17889197050554739       46.55006167188732
    19   0   1   0.0      16.671460523316043      1.4464390220333876      46.544001502424777
    20   0   1   0.0      17.380007702777075      2.6691857204248151      46.714793310472665
    21   0   1   0.0      18.837465093247221      2.7228627543605781      46.670493302822941
    22   0   1   0.0      19.557414503745147     -8.4530068701627208      46.749916183005261
    23   0   1   0.0      18.815654458698013     -7.2635887981548422      46.720821892869175
    24   0   1   0.0      19.555275421256358     -5.9796978112414365      46.701528809425803
    25   0   1   0.0      18.882664622018911     -4.7857527419660357       46.64046010433848
    26   0   1   0.0       19.55593820180497     -3.4943832651285125      46.568470911257364
    27   0   1   0.0      18.808948786587774     -2.2292977033623385      46.514088810055995
    28   0   1   0.0      19.578071896957038     -1.0311934685221928      46.533953889686536
    29   0   1   0.0      18.847446340892425     0.18077284733367069      46.535815791982884
    30   0   1   0.0      19.554066427736984      1.4572608271809517      46.568179175960111
    31   0   1   0.0      20.974422712789337     -8.3979302373894988      46.750804927053608
    32   0   1   0.0      21.718129335823473      -7.158602015899084      46.785269671192033
    33   0   1   0.0      21.016973681398827     -5.9758565919918292      46.733144782183636
    34   0   1   0.0      21.704037563231338      -4.688352439240421      46.580326486613181
    35   0   1   0.0      20.962569873886878      -3.450568846170321      46.508567837244492
    36   0   1   0.0      21.702672433908628     -2.2034841437960844       46.42445627848555
    37   0   1   0.0      20.989866738242707    -0.97517316050436897      46.394868521760706
    38   0   1   0.0      21.698853029101418     0.26321683319922484      46.320695965705319
    39   0   1   0.0      20.982170609243667      1.4812552568274779      46.414797209567617
    40   0   1   0.0      21.697084795204606       2.757139093170625      46.491568375955168
    41   0   1   0.0      23.108554662251763       2.769125953123682      46.433954316846226
    42   0   1   0.0      23.857184551780417      -8.421381999586151      46.676579299960984
    43   0   1   0.0      23.141503431471428     -7.1863549266090585      46.738173880923981
    44   0   1   0.0      23.838250392041289     -5.9309484757903705      46.722229885254784
    45   0   1   0.0      23.107325796199206     -4.6600179194521161      46.620199571603557
    46   0   1   0.0       23.82947446437133     -3.4600099043942723      46.596643603358181
    47   0   1   0.0      23.137599033904433      -2.213963487061088      46.447091626057563
    48   0   1   0.0      23.842833261015979    -0.99049050586808973      46.549834430805944
    49   0   1   0.0      23.116857489243738     0.24665204694550369      46.443656568011434
    50   0   1   0.0      23.851162148948642       1.526284096133478      46.515284089260753
    51   0   1   0.0      25.310107503157209     -8.4381533225147756      46.744873131148395
    52   0   1   0.0      25.931845391593747     -7.1499415227054151      46.901084166663672
    53   0   1   0.0       25.22507201199376     -5.9492582199124211      46.886473832435328
    54   0   1   0.0      25.947730221686538     -4.6825589799668732      46.982468193870403
    55   0   1   0.0      25.220747514867568     -3.4748088006927307      46.817890894287814
    56   0   1   0.0      25.888245637336652     -2.2255970399823792      46.907981707218234
    57   0   1   0.0      25.253042016584715    -0.99330098231391517       46.83085886339952
    58   0   1   0.0      25.968206292191422     0.19773725029448355      46.812914390107281
    59   0   1   0.0      25.224985639435502       1.438898286346068       46.66744383380626
    60   0   1   0.0      25.987736093152293      2.7453156552259625      46.618186326497835
    61   0   1   0.0      27.363038051742219      15.016601105576063       45.95293620090564
    62   0   1   0.0      15.207514268714093      3.8664566014659809      46.638306314327906
    63   0   1   0.0      27.405873306094009      5.1790270384397168      46.850584834200248
    64   0   1   0.0      15.227399094496416      6.3731294515183032      46.685114441689372
    65   0   1   0.0      27.357297665317198      7.6352907654807263      46.553905583073522
    66   0   1   0.0       15.22078546771491      8.8522167397605767      46.766971879134559
    67   0   1   0.0      27.386334657757754      10.106043728340527      46.125014940568498
    68   0   1   0.0      15.254971767419617      11.346957991399513      46.932888244657541
    69   0   1   0.0      27.359954694236301      12.524214379250376      45.780182056706444
    70   0   1   0.0      15.197677363381359      13.791236238757524       47.14981088670595
    71   0   1   0.0      16.653859308876594      3.8880423894464897      46.671124467207513
    72   0   1   0.0      17.374457567674732      5.1501907350978433      46.715178380340298
    73   0   1   0.0      16.667440932463588      6.3825050667585348       46.71141624752903
    74   0   1   0.0      17.382412350406025      7.6103096700334589      46.685318978915433
    75   0   1   0.0      16.654639340664687      8.8507405600943976      46.721645208789454
    76   0   1   0.0      17.389051302415275      10.086806185061112      46.739822593650295
    77   0   1   0.0      16.747602135756971      11.368688715162826      46.836322773490707
    78   0   1   0.0      17.414092914180596      12.655713772566555      46.931582295731069
    79   0   1   0.0      16.639493932962466      13.886239010692007      47.047886229635957
    80   0   1   0.0       17.41403877169591      15.055771908492853      47.198514325488468
    81   0   1   0.0      18.832804472726291      15.052613152224513      47.022341845983355
    82   0   1   0.0      19.540925552082729      3.9300851124690657      46.691451774660159
    83   0   1   0.0      18.808720732106107      5.1614741191429863      46.681832580763597
    84   0   1   0.0      19.527354726014629      6.4104020799650359      46.721794482261721
    85   0   1   0.0      18.802481233322055      7.6066328557843752      46.689716260074562
    86   0   1   0.0       19.51671773280659      8.8887611955092574      46.586309680293532
    87   0   1   0.0      18.777994900837392      10.147016284319163      46.649625838398237
    88   0   1   0.0      19.536248706258267      11.342975850900871      46.701760098068604
    89   0   1   0.0      18.868303182925708      12.631057002652597      46.820070099310904
    90   0   1   0.0      19.584572774131612      13.824302922307538      46.753909984499238
    91   0   1   0.0      20.985737669938292      3.9508020776219399      46.578961423482156
    92   0   1   0.0      21.644125409864138      5.1769991395410306      46.647050614723575
    93   0   1   0.0      20.973481606152085      6.3950821174611097      46.648242971194378
    94   0   1   0.0      21.694096460465282      7.6259836813865265      46.578321507125317
    95   0   1   0.0      20.922448523431616      8.8663867796604858      46.496850131105283
    96   0   1   0.0       21.64008009770069      10.106019543101919      46.461901085820742
    97   0   1   0.0      20.948729847036379      11.326436111681907      46.465295045887501
    98   0   1   0.0      21.635369303976226       12.57224521827469      46.400472504143551
    99   0   1   0.0      20.961967960821905      13.769821283824278       46.62799086881811
   100   0   1   0.0      21.658234761442223      15.029294820824548      46.625053533869774
   101   0   1   0.0      23.085677187422782      14.998529360493622      46.455704985456634
   102   0   1   0.0      23.777494590248651      3.9512531072934753      46.491389295990189
   103   0   1   0.0       23.07091785394751      5.1975509183155921      46.661062273648305
   104   0   1   0.0      23.813148371459903      6.4031879236151346      46.622563051849582
   105   0   1   0.0      23.128775671397751      7.6863062478411628      46.630927792306245
   106   0   1   0.0      23.835207101673802      8.9094381594662959      46.467837576089885
   107   0   1   0.0      23.089628026363748      10.111493495178044      46.389955498018281
   108   0   1   0.0      23.722753012269266      11.339943583647488      46.238423447719867
   109   0   1   0.0      23.055579369149012      12.577886094106155      46.313417216581854
   110   0   1   0.0      23.778870764499363      13.797593314707315      46.316654871059278
   111   0   1   0.0       25.24113792671071      3.9370312961037812      46.629847427207565
   112   0   1   0.0      25.968718679282691      5.1887110081606416      46.690060257278411
   113   0   1   0.0      25.255125572509844      6.3868879395299638      46.621062956683005
   114   0   1   0.0      25.979653546598659      7.6374727461402436      46.493849945157045
   115   0   1   0.0      25.228236849604329      8.8938890191774789      46.322575214087138
   116   0   1   0.0      25.881265042369076      10.118743693982983      46.119627925645041
   117   0   1   0.0      25.151628520933635      11.372712552172215      46.169310591681956
   118   0   1   0.0      25.938335072151972      12.518453801066274        46.0090743628244
   119   0   1   0.0      25.227806372137636      13.768860125451518       46.08064124358723
   120   0   1   0.0      25.949653392149479      14.986757940889406      46.062393964464761
   121   0   1   0.0      27.396223936214358       27.38138555805487      46.619770554690376
   122   0   1   0.0      15.272332838507353      16.246094657803628      47.306039899617936
   123   0   1   0.0      27.398970622602718      17.524860716124294      46.184273331716675
   124   0   1   0.0      15.239133550574884      18.717248879616044      47.374622354904318
   125   0   1   0.0      27.411753338525578      20.019782229220851       46.07926784717052
   126   0   1   0.0      15.249497412683239      21.188650749618471      47.112022788534844
   127   0   1   0.0      27.460343835039676      22.467990070838614       46.18953498459377
   128   0   1   0.0      15.196098958259073      23.652771208824237      46.984557151575501
   129   0   1   0.0      27.371718087260355      24.953627751768433      46.391976077735926
   130   0   1   0.0      15.231683454828872      26.194766308054579      46.819319800243441
   131   0   1   0.0      16.683908118076083      16.300509981353979      47.126488510172969
   132   0   1   0.0      17.364816073276504      17.551602834791503      47.119715220929876
   133   0   1   0.0       16.61732680623415      18.764505922954708      47.215199621933195
   134   0   1   0.0      17.392629931922745      20.006351969051082      47.238471622079523
   135   0   1   0.0      16.668655990059516      21.246006638676935      47.070308352160986
   136   0   1   0.0      17.433695808955925      22.478695302434755      47.023349426533976
   137   0   1   0.0      16.689260485462601      23.683501167171496      46.915430725243802
   138   0   1   0.0      17.377474079491371      24.926075223847313      46.944832117525607
   139   0   1   0.0      16.606482520858652      26.184226635123629      46.886680708141739
   140   0   1   0.0      17.365123618784168      27.382667562919099      46.835386619723167
   141   0   1   0.0      18.798830946552624      27.410513606178458        46.8316953598206
   142   0   1   0.0      19.540246208211936      16.314656638655354      47.019731737591023
   143   0   1   0.0      18.774513350262577      17.534216672629242      47.131967828747506
   144   0   1   0.0      19.522481865222197      18.771957050693118      47.087163582095279
   145   0   1   0.0      18.833453075608979      20.003362482960629      47.092507759745359
   146   0   1   0.0      19.546076603130281      21.214551523932617      47.018259105413897
   147   0   1   0.0      18.862908201338772      22.442677373782452      47.058793067257696
   148   0   1   0.0      19.522543766678574      23.672238576570532      46.824039666535306
   149   0   1   0.0       18.82048856150022      24.905002701248954      46.798253774390297
   150   0   1   0.0      19.472749022517846      26.177310444148603      46.790742272467661
   151   0   1   0.0      20.904852646422277      16.300963159403008      46.739393024695445
   152   0   1   0.0      21.678432127537452      17.537100917645052      46.766249665252481
   153   0   1   0.0      20.940030233184196      18.746437400097356      46.903929478757796
   154   0   1   0.0      21.657207803385973      19.990937237786824      46.769804201786776
   155   0   1   0.0      20.945484369183347      21.183883651715686      46.830897283453801
   156   0   1   0.0      21.648531248684289      22.423662654423687      46.777645044609578
   157   0   1   0.0      20.954772730303027      23.696241202847666      46.746691106522675
   158   0   1   0.0      21.657383886741449      24.925860417116763       46.68501336977338
   159   0   1   0.0       20.91313732474401      26.125887489139323      46.704907234929266
   160   0   1   0.0      21.619352568361084      27.383310115988984      46.806198460673002
   161   0   1   0.0      23.093921715048992      27.405924230954156      46.749119334483346
   162   0   1   0.0      23.820120786654567      16.257392099420869      46.486363664964784
   163   0   1   0.0      23.115200072322473      17.478773119327609      46.707884760592826
   164   0   1   0.0      23.846605620826981      18.727783346403189      46.533347151852674
   165   0   1   0.0      23.138042862587273      19.960802654314445      46.557163482621633
   166   0   1   0.0      23.846801660450293      21.219337560948816       46.42400113394698
   167   0   1   0.0      23.113823958561536      22.426305653143672      46.636388594506862
   168   0   1   0.0      23.788053106614782      23.673769896132985      46.603376129430501
   169   0   1   0.0      23.095902034633347      24.948266405478059      46.687463239785444
   170   0   1   0.0       23.81079016652339      26.164135417479741      46.762195680556516
   171   0   1   0.0      25.244406558732742      16.241955045697967      46.209107369415072
   172   0   1   0.0      25.959836746603546      17.452917804042805      46.208631364274197
   173   0   1   0.0      25.267833477432177      18.703482814477702      46.307619519657237
   174   0   1   0.0      26.002605521104233      19.964904976107547      46.199044110346918
   175   0   1   0.0      25.284685389709676      21.237725938067019      46.237441719849613
   176   0   1   0.0      25.984530713493839      22.519889187967191      46.226378562578255
   177   0   1   0.0      25.243387075662646      23.696044090122037      46.483403277821175
   178   0   1   0.0      25.976908110855323      24.950483508746405      46.571784895676593
   179   0   1   0.0      25.224058232972158      26.185362546965454      46.778751594131457
   180   0   1   0.0      25.968081453784894      27.440747779538206      46.784843250584359
   181   0   1   0.0      27.372181785017343      39.723086654853851      46.443794057437827
   182   0   1   0.0      15.214136175909493      28.590869057303475      46.822524035031577
   183   0   1   0.0      27.358721921563159       29.87357747798837      46.728767965960053
   184   0   1   0.0      15.119505808659492      31.059320251128796       46.97895747620138
   185   0   1   0.0      27.336677024274568      32.348415458395529       46.83181137572025
   186   0   1   0.0      15.163973910683316      33.567948480247104      47.122644653928702
   187   0   1   0.0      27.275749451058413      34.806549981172367      46.739894308370289
   188   0   1   0.0      15.137243143640502      36.033974671010554      47.376126104126485
   189   0   1   0.0      27.340648875080106      37.249404457396302      46.474767176258503
   190   0   1   0.0      15.232852200992609      38.542232089032112      47.471537082571565
   191   0   1   0.0      16.618649697352748       28.64327173217854      46.799352304114443
   192   0   1   0.0      17.300392998764075      29.873691254925543      46.845083933602297
   193   0   1   0.0      16.631534314713672      31.102065375147674      47.023086645050867
   194   0   1   0.0      17.277509668717968      32.369860210558329      47.161243690766291
   195   0   1   0.0       16.59678923431051      33.577073132986975      47.199586182663758
   196   0   1   0.0      17.319854293042784       34.76470108624919      47.304712555758023
   197   0   1   0.0      16.612283577650469      35.971087558912032      47.535174138805047
   198   0   1   0.0      17.327013931544265      37.211837924765007      47.548892035763622
   199   0   1   0.0      16.642822671493736      38.491368595810485      47.491015639109627
   200   0   1   0.0      17.416867629597849      39.762227783776076      47.333189294698926
   201   0   1   0.0      18.825490761972333      39.760627685781735       47.27532373157279
   202   0   1   0.0      19.498857240101152      28.651167236753825      46.822458255851693
   203   0   1   0.0      18.721407502843142      29.809476050318711         46.967110264557
   204   0   1   0.0      19.456343263645376       31.03597479410757      47.173405605603477
   205   0   1   0.0      18.739498358504463      32.294888781253654       47.21846324579554
   206   0   1   0.0      19.505441739300387      33.529757920262938      47.329537846534564
   207   0   1   0.0      18.760206110285317       34.80574543252758      47.406175686039411
   208   0   1   0.0      19.512821681621762      35.977389582480235      47.403414183459866
   209   0   1   0.0      18.768748543603351       37.22125607491752      47.384751708699042
   210   0   1   0.0      19.538300805794901      38.478548599407681       47.27062772772689
   211   0   1   0.0      20.930840666827415       28.65643513239878      46.907392292580042
   212   0   1   0.0      21.685940438855173       29.83088073231027      46.988562797240284
   213   0   1   0.0      20.919561717712817      31.059773202711789       47.24391384428845
   214   0   1   0.0      21.634513265823159      32.282359897517146      47.326012497130925
   215   0   1   0.0      20.933606373624816      33.496769909891803       47.36919190039275
   216   0   1   0.0      21.667953611634776      34.748972797824933       47.33989719878079
   217   0   1   0.0      20.941143373327581      35.989539771572488      47.396510798995436
   218   0   1   0.0      21.665036191962571      37.223101015335331      47.187822874005676
   219   0   1   0.0      20.965553103365735      38.498461526741266       47.15051049478452
   220   0   1   0.0      21.663827624775461      39.743321753853884      47.024482128972252
   221   0   1   0.0      23.066537633392993      39.708613108219581      46.919007331219113
   222   0   1   0.0      23.843502394937023      28.623786328430349      46.794018303636321
   223   0   1   0.0      23.064854849570242      29.865385482198956        46.9397694494116
   224   0   1   0.0      23.763199480448826      31.069739618226315      47.040201755694305
   225   0   1   0.0      23.079349972864694      32.262020595478667      47.216117571538284
   226   0   1   0.0      23.753628603759697      33.518043244516406      47.193856578772802
   227   0   1   0.0      23.085064928655616      34.789294108320561      47.255300967740233
   228   0   1   0.0      23.765237553683388      35.995877307087625      47.129071282157994
   229   0   1   0.0       23.09049920791287      37.266204723294322      47.216887887649463
   230   0   1   0.0      23.824504336167433      38.514613978567333      46.867188435693542
   231   0   1   0.0      25.239073297669449       28.65136065657699      46.769784450816381
   232   0   1   0.0      25.951846615024994      29.872404743571934       46.76970466335861
   233   0   1   0.0       25.19068638903039      31.100999772304675      46.908815034254502
   234   0   1   0.0      25.882931547951884      32.337397730242323      46.818595449376794
   235   0   1   0.0      25.147962113156023         33.587619045337      46.945298043344373
   236   0   1   0.0      25.868886056963706      34.772979911934932      46.920401725287256
   237   0   1   0.0      25.165644002169394      36.062554219852231      46.858302119264685
   238   0   1   0.0      25.865882666473492       37.24021891459622      46.593705606249067
   239   0   1   0.0      25.243725786888973      38.488082336465212      46.745708564508504
   240   0   1   0.0      25.932436278393535      39.712055162478705      46.621324469274853
   241   0   1   0.0      27.398320316783323       52.07225705831101      45.907448160095882
   242   0   1   0.0      15.287551388829016      41.008273946582477      47.219839236196144
   243   0   1   0.0      27.344510378313565      42.126936290948315      46.176252328156082
   244   0   1   0.0      15.220982295549979      43.494829795662859       47.00498825495945
   245   0   1   0.0      27.325689972804312      44.625394232953703       46.02053538011242
   246   0   1   0.0      15.223105889904776      45.933913356758772      46.718849863245232
   247   0   1   0.0      27.337169490578685      47.091831039360038      45.968829021028583
   248   0   1   0.0      15.218907713911356      48.321207535145568      46.384084539449368
   249   0   1   0.0      27.354894650588669      49.563425574838867      45.970319794311315
   250   0   1   0.0      15.244485370091978      50.794997637363949      46.098869263037251
   251   0   1   0.0      16.680725751862887      40.977548969991702      47.202968175554993
   252   0   1   0.0      17.340275393029103      42.237300688851157      47.052373670987187
   253   0   1   0.0      16.637132442470612      43.508872688777366      46.956507808898969
   254   0   1   0.0      17.365560301310964      44.713624793197674      46.797738484033374
   255   0   1   0.0      16.716054462455407      45.940945054928335      46.671235512564699
   256   0   1   0.0      17.383324464308743      47.165422074247829      46.452101524550748
   257   0   1   0.0      16.639574930916087      48.358205494996184      46.347194257546363
   258   0   1   0.0      17.348697456737611      49.597546483408024      46.226450105099232
   259   0   1   0.0      16.633101471628279      50.871118796099879      46.165730883771843
   260   0   1   0.0      17.376997827166804      52.093478417902674        45.9193223496694
   261   0   1   0.0      18.792633171498064      52.087847873638282      45.892484697458684
   262   0   1   0.0      19.502121162597888      41.019820783217433      47.133161913778949
   263   0   1   0.0      18.750277443645999      42.232981392567602      47.037292042983708
   264   0   1   0.0      19.459037580258105      43.411049987415844      46.790370450665698
   265   0   1   0.0      18.782515161311522      44.651384488828796      46.738756391429547
   266   0   1   0.0      19.500183600345796      45.881142566509439      46.497637292661295
   267   0   1   0.0      18.857041309086927       47.17092576211148      46.444008378227686
   268   0   1   0.0        19.5290250181109      48.382850863224895      46.240262749608966
   269   0   1   0.0      18.786237898133237      49.580225925831535      46.200533195620586
   270   0   1   0.0      19.514544299468653      50.790405107033337      46.081088108932448
   271   0   1   0.0      20.894223358654234      40.992919546619852      46.897997500124781
   272   0   1   0.0      21.632361644114507      42.176758336735773      46.681426520601988
   273   0   1   0.0      20.912120957390211      43.432719584327351      46.589184028312609
   274   0   1   0.0      21.627402553764487      44.646209186530371      46.391511190305231
   275   0   1   0.0      20.899115229271093      45.878397621173853      46.319978611609983
   276   0   1   0.0      21.630474001934612      47.127858515534584      46.151602840048504
   277   0   1   0.0      20.912139449666014       48.35251807167672      46.111350627920665
   278   0   1   0.0      21.623475270297103      49.572092821414927      46.065589073684748
   279   0   1   0.0      20.927294937879154      50.802399314931293      46.001277349526646
   280   0   1   0.0      21.656168321138392      52.038847979333141      45.831977060268521
   281   0   1   0.0      23.084562460184738      52.040807900428426      45.741416727233648
   282   0   1   0.0      23.789168264690833      40.955997624182366      46.649317274203824
   283   0   1   0.0      23.073522816343328      42.206200590331996      46.550810943684525
   284   0   1   0.0      23.768196562988301      43.388228088378057      46.340500692162031
   285   0   1   0.0      23.069050113118099      44.616868896712823      46.251311665675125
   286   0   1   0.0      23.725803205571324      45.862070906851912      46.001043516573127
   287   0   1   0.0      23.056617694693514      47.048174960187303      46.083326740501782
   288   0   1   0.0      23.754131372511655      48.342054030363762      45.941160286559651
   289   0   1   0.0      23.069924543403999      49.550179172736826      45.925386236687331
   290   0   1   0.0      23.808735610041076      50.786597346098084       45.83003402907844
   291   0   1   0.0      25.196076790585415      40.959411519310216      46.508506749156673
   292   0   1   0.0      25.916578356432005      42.178462907930644      46.185592766670979
   293   0   1   0.0       25.18971513083968      43.391669123635587       46.17490720858116
   294   0   1   0.0      25.905891494015588      44.664254677363914      45.946432238562579
   295   0   1   0.0      25.137713826651673       45.86906548195045      45.946346199477048
   296   0   1   0.0      25.890749080744271      47.096085445273488      45.970210807850847
   297   0   1   0.0      25.211334888767592      48.364427639365715      45.900649988560765
   298   0   1   0.0      25.976055443572534       49.56990645098314      45.897416163206302
   299   0   1   0.0       25.22615921886872      50.844921110243362       45.88842698682074
   300   0   1   0.0      25.964015172375884      52.073569411032835      45.901871954508621
   301   0   1   0.0      27.432571937496061      64.393294171058628       45.40258863955782
   302   0   1   0.0      15.251048170698526      53.289241923121679      45.989860873389702
   303   0   1   0.0      27.341746130148472      54.555210625208616      45.824444734415579
   304   0   1   0.0      15.220792038522232      55.755609154043363       46.01580063666556
   305   0   1   0.0      27.399996817542746      57.002219196389476      45.811589666201705
   306   0   1   0.0      15.242338796333266      58.241581231728048      46.101161332623136
   307   0   1   0.0      27.391469680597584      59.473777838036483       45.91074808504279
   308   0   1   0.0      15.232727260511348      60.675235451649051      46.059278918887436
   309   0   1   0.0      27.406727382585949       61.95297305568397      45.697351333116067
   310   0   1   0.0      15.275643766600194      63.223719865002067      46.162918243454158
   311   0   1   0.0      16.667013712885652      53.325203717552164      45.849989323542424
   312   0   1   0.0      17.390360688265648      54.551138822319984      45.729744693857647
   313   0   1   0.0      16.613134517850103      55.740311830432979      45.785338117002652
   314   0   1   0.0      17.349288408408789      56.974479445273687      45.680200596512869
   315   0   1   0.0      16.656669088485888      58.212914993447605      45.869681545203576
   316   0   1   0.0      17.399284359781269      59.438901983385946      45.671297530110245
   317   0   1   0.0      16.631021015604613      60.686113373247046      45.868307008703027
   318   0   1   0.0       17.38122401795129      61.897465794810742      45.853166836629754
   319   0   1   0.0      16.678155649597389      63.151486100412789      46.023028433013756