LAMMPS (4 Feb 2025)
OMP_NUM_THREADS environment is not set. Defaulting to 1 thread. (src/comm.cpp:99)
  using 1 OpenMP thread(s) per MPI task
# LAMMPS script for continuing NVT simulation

atom_modify map yes
newton      on

read_restart nvt_prod.restart.1120000
Reading restart file ...
  restart file = 4 Feb 2025, LAMMPS = 4 Feb 2025
  restoring atom style full from restart
  orthogonal box = (0 0 0) to (154.008 148.2 151.07609)
  16 by 8 by 12 MPI processor grid
  pair style symmetrix/mace stores no restart info
  16140 atoms
Finding 1-2 1-3 1-4 neighbors ...
  special bond factors lj:    0        0        0       
  special bond factors coul:  0        0        0       
     0 = max # of 1-2 neighbors
     0 = max # of 1-3 neighbors
     0 = max # of 1-4 neighbors
     1 = max # of special neighbors
  special bonds CPU = 4.950 seconds
  read_restart CPU = 5.219 seconds

pair_style  symmetrix/mace
pair_coeff  * * ../../../../00-common/models/ch2o-dens-inv_swa-1-6-8.json C H O
Loading MACE model from '../../../../00-common/models/ch2o-dens-inv_swa-1-6-8.json' ... success
  mapping LAMMPS type 1 (C) to MACE type 1
  mapping LAMMPS type 2 (H) to MACE type 0
  mapping LAMMPS type 3 (O) to MACE type 2

group graphene type 1
8640 atoms in group graphene
group H2O type 2 3
7500 atoms in group H2O

thermo 1000

######### NVT production for 80 ps #############

dump DUMP1 all atom 100 nvt_prod_14.lammpstrj
timestep 0.001
fix NVT1 graphene nvt temp 300 300 0.1
Resetting global fix info from restart file:
  fix style: nvt, fix ID: NVT1
fix NVT2 H2O nvt temp 300 300 0.1
Resetting global fix info from restart file:
  fix style: nvt, fix ID: NVT2
run 80000
All restart file global fix info was re-assigned
Neighbor list info ...
  update: every = 1 steps, delay = 0 steps, check = yes
  max neighbors/atom: 2000, page size: 100000
  master list distance cutoff = 8
  ghost atom cutoff = 8
  binsize = 4, bins = 39 38 38
  1 neighbor lists, perpetual/occasional/extra = 1 0 0
  (1) pair symmetrix/mace, perpetual
      attributes: full, newton on
      pair build: full/bin
      stencil: full/bin/3d
      bin: standard
Per MPI rank memory allocation (min/avg/max) = 5.94 | 6.191 | 8.159 Mbytes
   Step          Temp          E_pair         E_mol          TotEng         Press     
   1120000   299.36176     -2514362        0             -2513737.5      18.366324    
   1121000   298.76395     -2514363.9      0             -2513740.6     -11.099646    
   1122000   301.8728      -2514359.5      0             -2513729.8     -8.3423894    
   1123000   300.72297     -2514369.8      0             -2513742.5      10.056799    
   1124000   298.66773     -2514371.9      0             -2513748.9      7.5317537    
   1125000   299.27651     -2514363.4      0             -2513739.1      1.9474774    
   1126000   300.21118     -2514365        0             -2513738.8      25.095282    
   1127000   299.06131     -2514366.8      0             -2513742.9      41.063405    
   1128000   301.9353      -2514360.4      0             -2513730.5      17.976127    
   1129000   301.19038     -2514358.8      0             -2513730.5      18.733306    
   1130000   298.52615     -2514355        0             -2513732.2      29.069599    
   1131000   302.99534     -2514353.1      0             -2513721        13.598811    
   1132000   301.50331     -2514370.4      0             -2513741.4     -30.126984    
   1133000   302.23805     -2514365.7      0             -2513735.2     -13.001155    
   1134000   299.25793     -2514362.6      0             -2513738.3     -1.6108789    
   1135000   299.84464     -2514371.7      0             -2513746.1     -15.215168    
   1136000   303.17522     -2514357.4      0             -2513724.9     -20.183401    
   1137000   298.8851      -2514362        0             -2513738.5     -20.729371    
   1138000   298.70253     -2514366.1      0             -2513743       -23.828026    
   1139000   300.04781     -2514359.4      0             -2513733.5     -37.687692    
   1140000   294.68569     -2514365.6      0             -2513750.9     -36.523563    
   1141000   302.00702     -2514357.3      0             -2513727.2     -15.700534    
   1142000   298.14692     -2514354.1      0             -2513732.2     -6.7596281    
   1143000   301.77216     -2514363.6      0             -2513734       -0.57419636   
   1144000   302.05729     -2514358.6      0             -2513728.4     -2.0169457    
   1145000   301.46831     -2514362.1      0             -2513733.2      7.8832851    
   1146000   302.1236      -2514356.8      0             -2513726.5      20.254114    
   1147000   300.41878     -2514357.8      0             -2513731        14.150999    
   1148000   299.27536     -2514353.1      0             -2513728.8      4.4180546    
   1149000   295.77674     -2514360.2      0             -2513743.1      11.337755    
   1150000   297.25324     -2514352.6      0             -2513732.5     -9.3276827    
   1151000   294.81878     -2514362.9      0             -2513747.9      2.5633084    
   1152000   299.60336     -2514366.9      0             -2513741.8      64.802873    
   1153000   302.15026     -2514356.5      0             -2513726.2      13.885826    
   1154000   300.93609     -2514364.1      0             -2513736.3      66.725346    
   1155000   298.39164     -2514354.1      0             -2513731.7      5.2880609    
   1156000   300.28671     -2514361.3      0             -2513734.8      8.086163     
   1157000   300.19415     -2514359.6      0             -2513733.4     -16.886468    
   1158000   294.98129     -2514352        0             -2513736.7      16.078975    
   1159000   302.49175     -2514366.6      0             -2513735.6      0.37479028   
   1160000   301.85214     -2514355.7      0             -2513726        34.205758    
   1161000   299.59694     -2514361.5      0             -2513736.5      8.5514101    
   1162000   301.69478     -2514356.9      0             -2513727.6      56.403719    
   1163000   300.77932     -2514362        0             -2513734.5      26.812368    
   1164000   298.2357      -2514356.2      0             -2513734.1      3.7699071    
   1165000   299.01065     -2514363.8      0             -2513740        10.181659    
   1166000   300.91449     -2514366.9      0             -2513739.2      22.202427    
   1167000   298.95331     -2514363.6      0             -2513740        26.316847    
   1168000   300.40336     -2514360.2      0             -2513733.5      30.763783    
   1169000   299.07377     -2514369.6      0             -2513745.7      44.59624     
   1170000   300.14412     -2514361.7      0             -2513735.5      11.039892    
   1171000   297.18008     -2514374.7      0             -2513754.7      25.987526    
   1172000   297.45791     -2514365.5      0             -2513744.9     -3.6557408    
   1173000   300.3356      -2514377.8      0             -2513751.3     -30.577924    
   1174000   300.22021     -2514366.1      0             -2513739.8      19.759183    
   1175000   303.13723     -2514361.7      0             -2513729.3      4.293835     
   1176000   299.96507     -2514368.8      0             -2513743.1      0.17628477   
   1177000   297.46543     -2514373.2      0             -2513752.7     -43.50648     
   1178000   302.14954     -2514364        0             -2513733.7     -33.569612    
   1179000   299.95997     -2514358.3      0             -2513732.6     -19.451691    
   1180000   300.41524     -2514359.7      0             -2513733       -2.546018     
   1181000   300.55846     -2514367.6      0             -2513740.6      33.716283    
   1182000   298.09698     -2514365.3      0             -2513743.4      19.142738    
   1183000   303.28992     -2514345.3      0             -2513712.6      6.5954602    
   1184000   301.01607     -2514365.4      0             -2513737.5      36.506125    
   1185000   300.90717     -2514355.1      0             -2513727.4      54.435263    
   1186000   298.02017     -2514364.1      0             -2513742.4      50.283505    
   1187000   300.94155     -2514356.5      0             -2513728.7      4.0735195    
   1188000   301.06622     -2514359.9      0             -2513731.9      16.702718    
   1189000   300.08861     -2514361.8      0             -2513735.8      8.2004817    
   1190000   300.9998      -2514361.5      0             -2513733.6      6.7557082    
   1191000   299.65737     -2514359.7      0             -2513734.5      23.745743    
   1192000   298.01342     -2514364.6      0             -2513742.9     -1.5702151    
   1193000   299.2623      -2514360.5      0             -2513736.2     -20.99143     
   1194000   304.01534     -2514361.9      0             -2513727.7     -0.44928722   
   1195000   301.65189     -2514369.6      0             -2513740.3     -38.845506    
   1196000   300.04131     -2514361.9      0             -2513736       -13.128411    
   1197000   298.91026     -2514364.2      0             -2513740.6      4.9785869    
   1198000   301.19551     -2514370.3      0             -2513741.9      34.618372    
   1199000   294.54673     -2514365        0             -2513750.5     -12.895748    
   1200000   296.49699     -2514356.4      0             -2513737.9      34.831655    
Loop time of 50066 on 1536 procs for 80000 steps with 16140 atoms

Performance: 0.138 ns/day, 173.840 hours/ns, 1.598 timesteps/s, 25.790 katom-step/s
100.0% CPU use with 1536 MPI tasks x 1 OpenMP threads

MPI task timing breakdown:
Section |  min time  |  avg time  |  max time  |%varavg| %total
---------------------------------------------------------------
Pair    | 0.12382    | 5282.5     | 49280      |15440.0 | 10.55
Bond    | 0.0031428  | 0.0063127  | 0.031911   |   7.3 |  0.00
Neigh   | 0.014779   | 0.16552    | 4.9795     | 143.9 |  0.00
Comm    | 0.53236    | 1735.7     | 22886      |10676.3 |  3.47
Output  | 0.59645    | 6.4038     | 12.465     | 141.5 |  0.01
Modify  | 161.64     | 43033      | 50051      |7015.8 | 85.95
Other   |            | 8.532      |            |       |  0.02

Nlocal:        10.5078 ave         233 max           0 min
Histogram: 1371 6 49 62 5 6 12 11 5 9
Nghost:        115.383 ave        2064 max           0 min
Histogram: 1188 246 35 16 15 14 11 3 3 5
Neighs:              0 ave           0 max           0 min
Histogram: 1536 0 0 0 0 0 0 0 0 0
FullNghs:      1405.77 ave       50113 max           0 min
Histogram: 1421 60 9 5 9 9 10 5 4 4

Total # of neighbors = 2159264
Ave neighs/atom = 133.7834
Ave special neighs/atom = 0
Neighbor list builds = 4047
Dangerous builds = 0

write_restart nvt_prod.restart.*
System init for write_restart ...
write_data nvt_prod_final.lammps-data
System init for write_data ...

Total wall time: 13:55:03
