LAMMPS data file via write_data, version 4 Feb 2025, timestep = 1200000, units = metal

16140 atoms
3 atom types

0 154.00799999999998 xlo xhi
0 148.2 ylo yhi
0 151.07609208607428 zlo zhi

Masses

1 12.01099999691024
2 1.007999999740698
3 15.99899999588435

Atoms # full

5994 0 1 0 2.9450236868829895 0.724612800563512 108.70861932702951 1 0 0
5945 0 1 0 4.370343727044369 0.7280242251127005 108.76926699149224 1 0 0
5986 0 1 0 0.8046755109677786 1.8855151655293099 108.66695602890039 1 0 0
5995 0 1 0 2.245154845984438 1.9287424555772805 108.68510540622665 1 0 0
5996 0 1 0 3.012769641033715 3.111435413192693 108.67804232912037 1 0 0
5997 0 1 0 2.302388366096943 4.391821684871207 108.69645156746367 1 0 0
5988 0 1 0 0.850780907144284 4.4115329508883985 108.80026173484644 1 0 0
5987 0 1 0 0.12094718523147166 3.1891694358137848 108.80358179216103 1 0 0
5985 0 1 0 0.12816005008656842 0.6458160646375736 108.68479484967183 1 0 0
6674 0 1 0 7.231900608550285 0.7150989192619099 108.9912418193518 1 0 0
5941 0 1 0 4.391878387132189 8.131568445468089 108.59910442498811 1 0 0
6000 0 1 0 3.0090967065993053 8.166057924979405 108.71663395770568 1 0 0
5981 0 1 0 0.16914130879389197 8.106949836332603 108.84756095186576 1 0 0
5998 0 1 0 2.9775319282216297 5.615540736850662 108.69616101169713 1 0 0
5990 0 1 0 0.9027057466485602 6.843722623628912 108.81556394479853 1 0 0
5999 0 1 0 2.295052209760671 6.892062340526394 108.77378066908655 1 0 0
5949 0 1 0 4.418224625266848 5.719963485843765 108.59949444191862 1 0 0
5989 0 1 0 0.0868890439303805 5.621441363945871 108.85725839771547 1 0 0
6670 0 1 0 5.188156072780018 6.911546897782446 108.61899048850633 1 0 0
6045 0 1 0 0.17387373856045454 13.069523534874369 108.72847680208466 1 0 0
6051 0 1 0 2.307097913604409 9.363727906679587 108.61862806837075 1 0 0
6042 0 1 0 0.8593343739935831 9.330878748543302 108.76998781814089 1 0 0
6044 0 1 0 0.8847445832366595 11.794064793910056 108.67036042948764 1 0 0
6003 0 1 0 4.438283277945348 10.622061379676985 108.43638345997027 1 0 0
6052 0 1 0 3.0124070434379018 10.58372923544821 108.39754617594465 1 0 0
6053 0 1 0 2.294868011101183 11.834061610915995 108.49168854479112 1 0 0
6005 0 1 0 4.38630185352629 13.156522796025332 108.26912548003956 1 0 0
6054 0 1 0 2.9586366749813107 13.070684310109213 108.30303784932147 1 0 0
6043 0 1 0 0.16691884773854745 10.570137904062925 108.80067316765914 1 0 0
6722 0 1 0 5.0886404641041505 9.344410295891697 108.52156517120702 1 0 0
6724 0 1 0 5.138038798697861 11.898031431796802 108.33335038399329 1 0 0
6743 0 1 0 8.672073325164451 10.675229284978704 108.69314478356564 1 0 0
6731 0 1 0 6.538136149355433 9.376189919298184 108.60140151368081 1 0 0
6732 0 1 0 7.276529873262039 10.617357478436215 108.58935558765887 1 0 0
6733 0 1 0 6.505505637096925 11.846588457767782 108.53403737616378 1 0 0
6745 0 1 0 8.648699692905515 13.102175519647274 108.75434282398099 1 0 0
6734 0 1 0 7.217160288562913 13.10255224721272 108.59237551456306 1 0 0
6744 0 1 0 9.416395980165555 11.883341226003191 108.63739213084901 1 0 0
6058 0 1 0 2.9659446492547965 18.052255369270846 108.23257984921722 1 0 0
6049 0 1 0 0.2203327752287687 18.030749902971746 108.43335166189564 1 0 0
6009 0 1 0 4.4509017840933645 18.0800185821167 108.1986473165137 1 0 0
6047 0 1 0 0.13035297930265727 15.585597297909207 108.46992303008315 1 0 0
6048 0 1 0 0.9017317412710238 16.798464482229967 108.40109961086023 1 0 0
6046 0 1 0 0.8783473696232037 14.349936756108798 108.55139554731585 1 0 0
6007 0 1 0 4.416498168323868 15.605569004582643 108.27814633600228 1 0 0
6055 0 1 0 2.295742644966861 14.343671066293714 108.36662623074469 1 0 0
6056 0 1 0 2.971801676656384 15.576816605311901 108.28315790914607 1 0 0
6057 0 1 0 2.2973049335470463 16.77934134829685 108.2025579683057 1 0 0
6738 0 1 0 7.289500217616724 18.10896936878175 108.42358292289795 1 0 0
6728 0 1 0 5.1729890528086475 16.848087834296557 108.23882231804069 1 0 0
6737 0 1 0 6.622506936497166 16.89120272948815 108.41828236833122 1 0 0
6726 0 1 0 5.104696248313077 14.39565350856211 108.32796148529778 1 0 0
6749 0 1 0 8.736858303970662 18.083481535726314 108.53644672446126 1 0 0
6748 0 1 0 9.433138969565379 16.81446549703603 108.69046514688462 1 0 0
6746 0 1 0 9.376082248158836 14.335794639112706 108.82174331545798 1 0 0
6747 0 1 0 8.705107339543666 15.54425930589817 108.70731761085769 1 0 0
6736 0 1 0 7.289959047562615 15.567829932703214 108.56706604767612 1 0 0
6735 0 1 0 6.534676760081465 14.349937976752127 108.4709947382595 1 0 0
5947 0 1 0 4.440308263708409 3.189535601075537 108.61094898983649 1 0 0
6666 0 1 0 5.138606831250252 1.957701806655809 108.7272727675596 1 0 0
6685 0 1 0 8.643999201116644 0.7334080909796323 109.21249510886494 1 0 0
6675 0 1 0 6.566547443879664 1.941645483954396 108.8483730352041 1 0 0
6686 0 1 0 9.348788022506561 1.9668312548162972 109.22808652562927 1 0 0
6676 0 1 0 7.292653858733658 3.1959862116016846 108.77890814635663 1 0 0
6687 0 1 0 8.678618634147563 3.214212741226597 109.03371292699738 1 0 0
6688 0 1 0 9.430032978028814 4.402452052859632 109.00047808910034 1 0 0
6668 0 1 0 5.142208146431416 4.459357564244207 108.57536862026257 1 0 0
6677 0 1 0 6.54837039621097 4.423614342983194 108.51313643439435 1 0 0
6680 0 1 0 7.282390389499467 8.181582426115755 108.74900459001928 1 0 0
6681 0 1 0 8.699506074774225 8.152871389089805 108.69337926140118 1 0 0
6690 0 1 0 9.421463553115833 6.871586673240571 108.84181379042705 1 0 0
6679 0 1 0 6.604828549084685 6.933000369456791 108.6566542349054 1 0 0
6689 0 1 0 8.709640918163055 5.645441644105524 108.77744812993592 1 0 0
6678 0 1 0 7.30077945397963 5.645697880699019 108.63975691796287 1 0 0
6742 0 1 0 9.375184691179228 9.399010803201381 108.762967803037 1 0 0
6103 0 1 0 0.12116334264843166 23.01085108339175 108.25641054724112 1 0 0
6112 0 1 0 3.0001767255203187 22.965620471632032 108.30723817831164 1 0 0
6063 0 1 0 4.430608172230881 22.994490782770317 108.36420190642629 1 0 0
6111 0 1 0 2.339196817941511 21.741577560193143 108.23011796031219 1 0 0
6001 0 1 0 4.47144320501496 20.471715695403333 108.25297564527318 1 0 0
6060 0 1 0 2.982306091914901 20.483261819407442 108.23384402242517 1 0 0
6050 0 1 0 0.829039309441027 19.25954797901816 108.32164573747248 1 0 0
6059 0 1 0 2.2313770305955263 19.26421038636903 108.30856913834143 1 0 0
6102 0 1 0 0.8913565742312218 21.729085236659888 108.19534883015368 1 0 0
6041 0 1 0 0.18297413644699304 20.54370616138726 108.247455211786 1 0 0
6791 0 1 0 6.576248080991435 21.725319400192735 108.58539264783323 1 0 0
6792 0 1 0 7.299538820958308 22.93758059956411 108.67292715517729 1 0 0
6802 0 1 0 9.456126774551128 21.76696694357065 108.77901785526313 1 0 0
6803 0 1 0 8.746936399594087 22.9768352601298 108.70723553529557 1 0 0
6730 0 1 0 5.178392667328298 19.303572363104564 108.28603067372717 1 0 0
6740 0 1 0 7.335377637213595 20.54675195329031 108.55723270111596 1 0 0
6782 0 1 0 5.161133487215792 21.771725531985304 108.41272773572314 1 0 0
6741 0 1 0 8.730930753769425 20.50323813259568 108.65307206465576 1 0 0
6739 0 1 0 6.6014163296215385 19.3194270094065 108.39989845185423 1 0 0
6750 0 1 0 9.458659960671287 19.316122188918538 108.65609026005308 1 0 0
6104 0 1 0 0.8555047428918789 24.22926336582104 108.40176249533245 1 0 0
6114 0 1 0 3.0240437713375687 25.451056203847635 108.37954764206182 1 0 0
6106 0 1 0 0.8933568006223223 26.671973409486018 108.41508203970288 1 0 0
6105 0 1 0 0.12315050300217717 25.461676648145776 108.38923542004594 1 0 0
6115 0 1 0 2.3205549069527582 26.704326060303522 108.38130100800788 1 0 0
6113 0 1 0 2.2846044222018818 24.217101538715454 108.33653909081993 1 0 0
6065 0 1 0 4.408636284478972 25.489094949459435 108.51272892693132 1 0 0
6795 0 1 0 6.6001864408177315 26.638439316439495 108.40922025342824 1 0 0
6784 0 1 0 5.127254678095552 24.22010824143482 108.50322534735514 1 0 0
6786 0 1 0 5.1248107819444035 26.723464493829276 108.47987130481853 1 0 0
6793 0 1 0 6.571401758967061 24.175813255530514 108.63065124183048 1 0 0
6805 0 1 0 8.736851928392774 25.429324114522906 108.5528669998294 1 0 0
6794 0 1 0 7.2766969650259545 25.41615840776738 108.53831389083096 1 0 0
6806 0 1 0 9.393797582368828 26.691229496018586 108.56636681310637 1 0 0
6804 0 1 0 9.436029651270548 24.220752170321482 108.72652115767914 1 0 0
6110 0 1 0 0.8368108160997041 31.64512541588143 108.58117948553607 1 0 0
6109 0 1 0 0.17244792648992027 30.415361894013078 108.55047668420883 1 0 0
6117 0 1 0 2.3269026744845136 29.15196552765384 108.26330826614797 1 0 0
6118 0 1 0 3.01862313251113 30.371488614808047 108.2602669846037 1 0 0
6108 0 1 0 0.915103524965039 29.17742647415704 108.52781256804403 1 0 0
6119 0 1 0 2.285405972009592 31.621569039992814 108.44099365006264 1 0 0
6069 0 1 0 4.477534261153198 30.406041374363184 108.18167690959405 1 0 0
6067 0 1 0 4.506241713332539 27.92999753506271 108.30361254419284 1 0 0
6116 0 1 0 3.044889921684312 27.891089808200842 108.22392395949348 1 0 0
6107 0 1 0 0.13878964872408311 27.897243862811468 108.43341091013797 1 0 0
6790 0 1 0 5.164270644949215 31.622657343893334 108.31275599472116 1 0 0
6788 0 1 0 5.200775133826321 29.138985621463675 108.17094192456335 1 0 0
6808 0 1 0 9.44082948316105 29.150860715801503 108.37226065467182 1 0 0
6807 0 1 0 8.717178621839713 27.90920103448794 108.45636620080958 1 0 0
6796 0 1 0 7.293860735448751 27.864210723653187 108.38316966528967 1 0 0
6797 0 1 0 6.615911414183638 29.141937660740034 108.27673856917426 1 0 0
6798 0 1 0 7.336979904002215 30.400081285942765 108.19146271740136 1 0 0
6809 0 1 0 8.783280525322066 30.401601130581962 108.2995214827474 1 0 0
6799 0 1 0 6.609236732674694 31.658023767429516 108.19927947573812 1 0 0
6810 0 1 0 9.47302923044124 31.663767395110675 108.34758229862882 1 0 0
6163 0 1 0 0.13813472417155648 35.316753570496175 108.78936511175495 1 0 0
6120 0 1 0 3.028480816657618 32.88049671076803 108.5339402565407 1 0 0
6171 0 1 0 2.2901891587582015 34.12062110448807 108.67618871180309 1 0 0
6162 0 1 0 0.8626926013596272 34.1147808513409 108.70629943387071 1 0 0
6123 0 1 0 4.439586257064387 35.32887819476801 108.56374026684925 1 0 0
6172 0 1 0 3.030523651812852 35.3385859189089 108.64205759299169 1 0 0
6173 0 1 0 2.338498859339072 36.551618013522955 108.59850104701114 1 0 0
6164 0 1 0 0.8815254166238481 36.55800592531235 108.7272673983688 1 0 0
6101 0 1 0 0.12691627214937928 32.91849948476929 108.6721276686963 1 0 0
6061 0 1 0 4.459099945449325 32.87919348452916 108.42397720545988 1 0 0
6862 0 1 0 9.467406122667326 34.113110922337576 108.4269415918227 1 0 0
6853 0 1 0 6.575391773596796 36.590776836714376 108.47999951767062 1 0 0
6844 0 1 0 5.110896689449601 36.56456706066416 108.42893968026662 1 0 0
6863 0 1 0 8.756901488654751 35.318029840684126 108.42328249922045 1 0 0
6852 0 1 0 7.2689700717817685 35.35058969710251 108.39580064644765 1 0 0
6864 0 1 0 9.424953236606763 36.59382442126643 108.29040427363961 1 0 0
6851 0 1 0 6.567732747468082 34.117834740871885 108.32689816948964 1 0 0
6801 0 1 0 8.716695486888943 32.897882440649 108.34385963257732 1 0 0
6800 0 1 0 7.275775615841628 32.884828065459175 108.29519950499966 1 0 0
6842 0 1 0 5.150098457926863 34.08674300698131 108.49559350591777 1 0 0
6125 0 1 0 4.433250921541012 37.82909954902624 108.45541711927679 1 0 0
6174 0 1 0 3.015723692089841 37.834817499216754 108.56501764409553 1 0 0
6175 0 1 0 2.28135419035692 39.06394371969351 108.63024360958255 1 0 0
6166 0 1 0 0.887222899148015 39.03343888685412 108.65967571761986 1 0 0
6176 0 1 0 2.9932126402154084 40.354982451025876 108.64898081474742 1 0 0
6127 0 1 0 4.4272831434209765 40.29359345578874 108.60375598652965 1 0 0
6168 0 1 0 0.8298778964811251 41.519313754325744 108.67283431249125 1 0 0
6177 0 1 0 2.2579265447466965 41.5878226845949 108.63892843608018 1 0 0
6165 0 1 0 0.15900102503535454 37.81188518771017 108.68058680011983 1 0 0
6167 0 1 0 0.16941145143406036 40.245375633259826 108.76898134193202 1 0 0
6846 0 1 0 5.15840776863517 39.04342559005538 108.53383948232873 1 0 0
6865 0 1 0 8.685445534466885 37.80358652180207 108.30100523042283 1 0 0
6854 0 1 0 7.254182795777269 37.78284334191217 108.47341597947245 1 0 0
6866 0 1 0 9.438075717824484 39.044938601451946 108.3416463827757 1 0 0
6855 0 1 0 6.634445622058203 39.07870874916676 108.48360772408179 1 0 0
6867 0 1 0 8.724356728502366 40.289050226832785 108.47344299539613 1 0 0
6856 0 1 0 7.324513165057704 40.304838966235025 108.50727310270798 1 0 0
6848 0 1 0 5.171391218579542 41.513220814862876 108.6832023983107 1 0 0
6868 0 1 0 9.453810190527358 41.47548571637067 108.55685013337727 1 0 0
6857 0 1 0 6.620604596552821 41.51679580864248 108.7020108769637 1 0 0
6169 0 1 0 0.1239782517107701 42.741598010749286 108.7845569201088 1 0 0
6129 0 1 0 4.493902439462858 42.73810523309031 108.67505602687248 1 0 0
6178 0 1 0 3.0171979814158876 42.80563494402068 108.6413364325238 1 0 0
6179 0 1 0 2.279387916453037 44.06347128830829 108.81674260488221 1 0 0
6170 0 1 0 0.8840891784728734 44.02171981304701 108.87423565551494 1 0 0
6180 0 1 0 3.0077680555762076 45.2535197770287 108.91983302577519 1 0 0
6121 0 1 0 4.474400147886408 45.23191618975736 108.89551404973582 1 0 0
6161 0 1 0 0.1580680748584436 45.25994243203981 109.08349848817349 1 0 0
6850 0 1 0 5.205452198756785 43.99023482006451 108.74867725984004 1 0 0
6869 0 1 0 8.78904181114618 42.743114698668165 108.74273583739749 1 0 0
6858 0 1 0 7.3772433981489955 42.74046236920823 108.81233513038046 1 0 0
6870 0 1 0 9.46938882015262 43.99707119276139 108.6667506277941 1 0 0
6859 0 1 0 6.608725152560264 43.97944373549974 108.76022643582291 1 0 0
6861 0 1 0 8.743052289092509 45.237270261771734 108.78685069135626 1 0 0
6860 0 1 0 7.258185640579879 45.253214273951954 108.84532862702537 1 0 0
6224 0 1 0 0.8186910138461275 48.95609938261703 109.00966629452287 1 0 0
6231 0 1 0 2.247668562541667 46.48109456322094 109.08178047261875 1 0 0
6232 0 1 0 2.981231230009926 47.72343084177593 109.08232866702495 1 0 0
6183 0 1 0 4.421104644856326 47.7295727838305 109.11864159974455 1 0 0
6233 0 1 0 2.281787058330422 48.960053091334075 109.06919259271984 1 0 0
6222 0 1 0 0.812644207012028 46.49543679127764 109.05743948362414 1 0 0
6185 0 1 0 4.4399759351933925 50.17815246387055 109.09624922010505 1 0 0
6234 0 1 0 3.011074673336908 50.19546507319199 109.030187448615 1 0 0
6225 0 1 0 0.13870528902919163 50.20640923781885 108.92916748801292 1 0 0
6223 0 1 0 0.08266551518449249 47.7438176387525 109.01220848059802 1 0 0
6902 0 1 0 5.153646583597415 46.489164247520826 108.98330127960217 1 0 0
6904 0 1 0 5.178173553957964 48.97135152959119 109.09011228558526 1 0 0
6923 0 1 0 8.788487090144875 47.7266769309739 108.86579072303273 1 0 0
6922 0 1 0 9.52049042356678 46.49257108920125 108.76075306045112 1 0 0
6912 0 1 0 7.3420733316942055 47.71128708901058 108.93737555399417 1 0 0
6911 0 1 0 6.616941915745226 46.53896714813648 108.99621146455168 1 0 0
6913 0 1 0 6.633628369743499 48.97308588816614 108.90001851359933 1 0 0
6924 0 1 0 9.495794142806869 48.96856369308658 108.71080751943177 1 0 0
6914 0 1 0 7.336061156145964 50.19522230885043 108.83673321512825 1 0 0
6925 0 1 0 8.755705702259307 50.20604535872381 108.66059823970632 1 0 0
6237 0 1 0 2.263017918914443 53.874792468501354 108.70245150760357 1 0 0
6235 0 1 0 2.3047889991867145 51.38863852475115 108.96087515865312 1 0 0
6187 0 1 0 4.484597068616681 52.67029104589658 108.83960723643938 1 0 0
6236 0 1 0 3.018597852321555 52.60824862131683 108.8923044364322 1 0 0
6226 0 1 0 0.8624584781271157 51.411988386891124 108.92771578057467 1 0 0
6189 0 1 0 4.436284095976323 55.14037412048437 108.68888872990154 1 0 0
6238 0 1 0 2.980892158546903 55.1339974756337 108.68672003531682 1 0 0
6916 0 1 0 7.394987135244069 52.67156651097822 108.67984914646392 1 0 0
6915 0 1 0 6.666968314293741 51.49381266880186 109.058783411109 1 0 0
6928 0 1 0 9.399875925961457 53.87486439915245 108.09140117224631 1 0 0
6929 0 1 0 8.713616818356787 55.095324951598464 108.11301778867362 1 0 0
6917 0 1 0 6.612390659624848 53.91165696698024 108.60410121264692 1 0 0
6926 0 1 0 9.458642346002781 51.41649928408019 108.44561862951892 1 0 0
6906 0 1 0 5.219147192202037 51.45713235164661 109.06578286457452 1 0 0
6908 0 1 0 5.170518769807643 53.91105722971787 108.70327893937517 1 0 0
6918 0 1 0 7.2895828004259124 55.13798865018242 108.3701917690136 1 0 0
6927 0 1 0 8.765629123598949 52.655018193658975 108.40479817944342 1 0 0
6228 0 1 0 0.8534423568687183 53.861116856433235 108.6331304064988 1 0 0
6227 0 1 0 0.14469657171043157 52.6295648535428 108.82276280661755 1 0 0
6229 0 1 0 0.15665580043326338 55.12613970322322 108.63909372114297 1 0 0
6240 0 1 0 3.0398381912495585 57.5729426471911 108.6321891458891 1 0 0
6181 0 1 0 4.47211127167118 57.57629732676261 108.6164518501467 1 0 0
6243 0 1 0 4.459739883475391 60.0549626233606 108.58844142569636 1 0 0
6910 0 1 0 5.20489954168398 56.355468209779886 108.59986310261047 1 0 0
6962 0 1 0 5.161774705244673 58.7997089849085 108.59354358997243 1 0 0
6930 0 1 0 9.432463291062904 56.348065254050724 108.0564620360207 1 0 0
6920 0 1 0 7.302546115368948 57.572282200380364 108.39352042438826 1 0 0
6921 0 1 0 8.708338161805095 57.56280645834964 108.23639054502539 1 0 0
6919 0 1 0 6.611724941615781 56.37620804251722 108.49081897420938 1 0 0
6982 0 1 0 9.435634864980102 58.812102191039386 108.37341224697143 1 0 0
6971 0 1 0 6.640887556951571 58.81793672001904 108.4805934685618 1 0 0
6983 0 1 0 8.696642508635318 60.07425292453993 108.57343569630545 1 0 0
6972 0 1 0 7.295260987721134 60.06409804661676 108.48926363951752 1 0 0
6245 0 1 0 4.4026572355980145 62.50267862669871 108.73701997183801 1 0 0
6964 0 1 0 5.151835319438735 61.28648140652285 108.66587408655262 1 0 0
6966 0 1 0 5.125706040831187 63.7467216242972 108.76201605048423 1 0 0
6984 0 1 0 9.421677966120031 61.30699777068473 108.74190356033405 1 0 0
6973 0 1 0 6.5765881053994075 61.27827340423222 108.60624359702031 1 0 0
6985 0 1 0 8.673982102408521 62.517782668212696 108.75976113668793 1 0 0
6974 0 1 0 7.236349209352437 62.491166874359 108.7092229792342 1 0 0
6986 0 1 0 9.375046456941947 63.76030027687081 108.65231116817087 1 0 0
6975 0 1 0 6.518853329909092 63.72632511705749 108.72802506447154 1 0 0
6249 0 1 0 4.365801363431493 67.42310796013065 108.64209571703876 1 0 0
6298 0 1 0 2.9539446399662 67.42974166829046 108.70111086754186 1 0 0
6247 0 1 0 4.419380442816208 64.95712488960828 108.7578110203045 1 0 0
6297 0 1 0 2.272384147677732 66.22586239463794 108.76416381481818 1 0 0
6968 0 1 0 5.044077634358445 66.20352864328223 108.74525405027637 1 0 0
6970 0 1 0 5.012626256067422 68.68794908582065 108.66778134656624 1 0 0
6978 0 1 0 7.182867002916987 67.44875582865323 108.67804356858751 1 0 0
6989 0 1 0 8.569277535622229 67.43418528976265 108.60406939913608 1 0 0
6987 0 1 0 8.64888530297342 65.00251447403419 108.75690519146586 1 0 0
6976 0 1 0 7.203423751845958 65.01712858890897 108.77455269744328 1 0 0
6977 0 1 0 6.504816972424594 66.21090910295793 108.68892424582778 1 0 0
6988 0 1 0 9.367781464466372 66.21648313895287 108.62616598930234 1 0 0
6979 0 1 0 6.45358623578115 68.69890570693767 108.6443201509309 1 0 0
6990 0 1 0 9.325469925125446 68.67295227271538 108.64008395031156 1 0 0
6343 0 1 0 0.07787063447903116 72.38801629787052 109.12546441934695 1 0 0
6351 0 1 0 2.1875371879871257 71.14740210864217 108.89624742567673 1 0 0
6342 0 1 0 0.7755507214846005 71.16356396950238 108.95143862579752 1 0 0
6344 0 1 0 0.7916651488476066 73.58808950907851 109.1100710831863 1 0 0
7032 0 1 0 7.170883084500707 72.37569259986806 108.70153573716631 1 0 0
6981 0 1 0 8.63950403948447 69.8952860290297 108.74614083057406 1 0 0
7042 0 1 0 9.3583405732018 71.16086783284942 108.81045164337017 1 0 0
6980 0 1 0 7.187239810105797 69.90968946465361 108.60796958954465 1 0 0
6239 0 1 0 2.299228057809283 56.338862766930106 108.59040187130266 1 0 0
6230 0 1 0 0.8448277378215753 56.30144628140258 108.52775982346726 1 0 0
6282 0 1 0 0.8019928702420998 58.79314603022698 108.63277132228419 1 0 0
6291 0 1 0 2.3130800952167556 58.82956476649536 108.58239368571984 1 0 0
6292 0 1 0 3.009872228987031 60.01638851624915 108.61780501224082 1 0 0
6283 0 1 0 0.12176421491075279 60.098512650346386 108.63921819060089 1 0 0
6221 0 1 0 0.11972361549672064 57.53871134165893 108.5342992131131 1 0 0
6293 0 1 0 2.29093846465939 61.25689859116897 108.55407877410693 1 0 0
6294 0 1 0 2.977426743458623 62.49033977566771 108.6587580435134 1 0 0
6295 0 1 0 2.251414568751409 63.759706250211174 108.7155926494446 1 0 0
6286 0 1 0 0.8492653296329209 63.74928025584479 108.75878680789423 1 0 0
6284 0 1 0 0.8702491191201331 61.32861432343096 108.55441377624349 1 0 0
6285 0 1 0 0.13138805085388522 62.50652231971692 108.6224681417645 1 0 0
6296 0 1 0 2.987037851423087 64.96847527085782 108.77928878348648 1 0 0
6288 0 1 0 0.8374913412871356 66.21156350140966 108.86516913528922 1 0 0
6299 0 1 0 2.182296218731743 68.67535554100888 108.81746764999886 1 0 0
6289 0 1 0 0.08577366108052072 67.4125704986709 108.85205361325244 1 0 0
6290 0 1 0 0.8001302329091714 68.66991087762155 108.81203119018748 1 0 0
6287 0 1 0 0.1418895266679497 64.95550596666274 108.74448175459801 1 0 0
6303 0 1 0 4.361934968281269 72.42277842420101 108.83620478012587 1 0 0
6241 0 1 0 4.319618422347968 69.94902850464423 108.72717752555305 1 0 0
6300 0 1 0 2.8747482713464656 69.9474520593296 108.84349036069725 1 0 0
6352 0 1 0 2.958515293712442 72.3900055166761 108.86531511680799 1 0 0
6353 0 1 0 2.2146370610572705 73.58808770743917 109.04677259433117 1 0 0
7022 0 1 0 5.043242159120485 71.19210159241707 108.69008132644227 1 0 0
7024 0 1 0 5.03392888657843 73.63362053520252 108.80152059530396 1 0 0
7044 0 1 0 9.363198613416733 73.62669833735329 108.8162752599929 1 0 0
7033 0 1 0 6.468938209290895 73.62274805932549 108.79206836228718 1 0 0
7043 0 1 0 8.643834767106357 72.43322157973918 108.73492203188668 1 0 0
7031 0 1 0 6.466477914104998 71.15391125679533 108.64791313831758 1 0 0
6281 0 1 0 0.10663028580403544 69.92320190980176 108.95946500813278 1 0 0
6347 0 1 0 0.08527057684660605 77.33228978217981 109.43199893200068 1 0 0
6359 0 1 0 2.2673971216113706 81.05989676319892 109.25806101433311 1 0 0
6350 0 1 0 0.8745577219564488 81.08081497934597 109.18703900982595 1 0 0
6341 0 1 0 0.14954498120274665 82.28582203619263 109.13898605862335 1 0 0
6349 0 1 0 0.09804053275272577 79.83417356363735 109.27738333642834 1 0 0
6360 0 1 0 3.007510297569498 82.28558820430904 109.25466518376278 1 0 0
6411 0 1 0 2.304048594360761 83.52654491164938 109.17170273421 1 0 0
6402 0 1 0 0.8527624169767151 83.51896554049439 109.14635096126794 1 0 0
6412 0 1 0 2.99051966411933 84.74871230124013 109.24982589504927 1 0 0
6413 0 1 0 2.275439807081559 85.9751316067455 109.2448398336683 1 0 0
6404 0 1 0 0.871493887215392 86.01551721135284 109.19610871225467 1 0 0
6414 0 1 0 2.991384433059322 87.24746984488495 109.09035623527026 1 0 0
6403 0 1 0 0.16482895312243573 84.79023602420824 109.22316199197128 1 0 0
6405 0 1 0 0.18095732605346007 87.28637904966683 109.08369966792526 1 0 0
6367 0 1 0 4.44911662133978 89.63717152269508 108.98842042367083 1 0 0
6418 0 1 0 3.00500235557665 92.2015085408401 109.0317157383685 1 0 0
6369 0 1 0 4.406734153797508 92.16204341460973 108.82083128403403 1 0 0
6409 0 1 0 0.17783125858402063 92.16925510788266 108.99173296782934 1 0 0
6406 0 1 0 0.9034378304790597 88.49026572625223 109.0480720262981 1 0 0
6416 0 1 0 3.0185544083300653 89.72791112052049 109.08200518259883 1 0 0
6415 0 1 0 2.3259128099822624 88.48855820767734 109.0603834735781 1 0 0
6417 0 1 0 2.3112599986261646 90.98124147006328 109.14346335668188 1 0 0
6408 0 1 0 0.9296964392341008 90.93467764645563 109.13264521893221 1 0 0
6407 0 1 0 0.1620453932162043 89.7570887815658 109.05391722934623 1 0 0
7098 0 1 0 7.290117859540911 92.13632840206581 108.76150367434434 1 0 0
7088 0 1 0 5.123426975871084 90.91424267500528 108.88349363398719 1 0 0
6305 0 1 0 4.325755601217121 74.87874790422158 109.06966986763321 1 0 0
6354 0 1 0 2.8820124316234823 74.815266006125 109.25020702450698 1 0 0
6346 0 1 0 0.7426990856565974 76.04063185809808 109.35898965448928 1 0 0
6355 0 1 0 2.2173655359151647 76.04283871290775 109.39802200704281 1 0 0
6356 0 1 0 2.9192196331644515 77.29816624749628 109.49808047532802 1 0 0
6348 0 1 0 0.7820046731608159 78.53484680818781 109.44077348635282 1 0 0
6345 0 1 0 0.12262141011599965 74.84961909592992 109.2175012167247 1 0 0
6307 0 1 0 4.3464099228820965 77.2545881245266 109.25950935182061 1 0 0
6357 0 1 0 2.233137542743521 78.58877712172026 109.50005604758881 1 0 0
7046 0 1 0 9.368836597974026 76.1567810472416 108.88597367736668 1 0 0
7045 0 1 0 8.64129235119132 74.86285428760496 108.76513032782843 1 0 0
7035 0 1 0 6.495712722770905 76.08930128433857 108.95093724762762 1 0 0
7034 0 1 0 7.235424136755916 74.81349029934464 108.93571691602658 1 0 0
7026 0 1 0 5.1043816437143334 76.09980643827183 109.13217173708259 1 0 0
7047 0 1 0 8.612807617030795 77.34880608192843 109.08611837075742 1 0 0
7036 0 1 0 7.216535764451471 77.34352651248952 109.09957974648394 1 0 0
7048 0 1 0 9.362335514801496 78.55596386988499 109.1491018340365 1 0 0
7028 0 1 0 5.105238909467191 78.46582180060093 109.25044225220849 1 0 0
7037 0 1 0 6.523128869995814 78.57536680444994 109.19301652103361 1 0 0
6358 0 1 0 2.955201171714168 79.79409747901563 109.40281943536371 1 0 0
6309 0 1 0 4.370038309315195 79.77952021701856 109.3095362197801 1 0 0
6301 0 1 0 4.41190018431372 82.2910201218358 109.28240051177637 1 0 0
7050 0 1 0 9.384192379087862 80.98710193006373 109.19795995143264 1 0 0
7049 0 1 0 8.655821204126353 79.7811479597054 109.07625148481334 1 0 0
7030 0 1 0 5.101999650194546 81.04161843559821 109.2337813443883 1 0 0
7041 0 1 0 8.68279554973425 82.26547214595517 109.25262197305192 1 0 0
7039 0 1 0 6.523700576522567 81.0372180559214 109.22069673173269 1 0 0
7040 0 1 0 7.243283901668466 82.27338104229963 109.2170596668296 1 0 0
7038 0 1 0 7.225510994865244 79.8207613989151 109.12487325780904 1 0 0
6363 0 1 0 4.4177037595164785 84.74054117340911 109.1703150998191 1 0 0
6365 0 1 0 4.451712992513488 87.19250088434954 108.94814675135245 1 0 0
7104 0 1 0 9.359250293222356 85.98119930230274 109.08770526194068 1 0 0
7082 0 1 0 5.122692903146946 83.52533462929973 109.25184295443076 1 0 0
7084 0 1 0 5.171237854474344 85.92474741652082 109.09783028156389 1 0 0
7092 0 1 0 7.279459499385576 84.73346122155496 109.11602542382165 1 0 0
7093 0 1 0 6.59406383068474 85.96293600298982 109.0384247666476 1 0 0
7102 0 1 0 9.442160242189962 83.48246438294242 109.2033824253662 1 0 0
7091 0 1 0 6.538875225364585 83.49693694925395 109.28827463478424 1 0 0
7103 0 1 0 8.68332265627285 84.74385998113864 109.05904007820516 1 0 0
7105 0 1 0 8.699779022294527 87.22766760396759 108.94438153944327 1 0 0
7094 0 1 0 7.226253847492449 87.19723033709113 108.86380527230516 1 0 0
7096 0 1 0 7.31012787168422 89.65060071946662 108.7793671999458 1 0 0
7086 0 1 0 5.1807596114059296 88.40879297837365 108.83098577331349 1 0 0
7108 0 1 0 9.444734059802654 90.89339177196493 108.98451245451975 1 0 0
7107 0 1 0 8.691077177520198 89.65478530437032 108.9270723639155 1 0 0
7095 0 1 0 6.562045050492087 88.46486794830567 108.74914587998079 1 0 0
7106 0 1 0 9.443366071991232 88.41934455603521 109.00999090353572 1 0 0
7109 0 1 0 8.696492421217782 92.13128606941915 108.89221934457515 1 0 0
7097 0 1 0 6.579982335555296 90.90213052857492 108.79946413805922 1 0 0
6463 0 1 0 0.1560706487176806 97.13961707299558 108.98476791195121 1 0 0
6361 0 1 0 4.4619865375881345 94.63498400341662 108.87562152302027 1 0 0
6419 0 1 0 2.31145608937279 93.41632875250917 108.9878021473193 1 0 0
6420 0 1 0 3.0156810003126786 94.66720160352187 108.8617582408255 1 0 0
6462 0 1 0 0.87832203508409 95.9003563687307 108.83257250888319 1 0 0
6471 0 1 0 2.323349346810631 95.91811327934276 108.79119760204082 1 0 0
6410 0 1 0 0.9224658809267543 93.36983647517823 108.90573456620523 1 0 0
6401 0 1 0 0.19149655643218313 94.65750515280988 108.89844629848618 1 0 0
7090 0 1 0 5.182455005829504 93.42615297120427 108.71280581609894 1 0 0
7099 0 1 0 6.6003708697552295 93.37890499323036 108.77010856221922 1 0 0
6472 0 1 0 3.051619051060029 97.16003590307824 108.91350733743525 1 0 0
6423 0 1 0 4.497407026963923 97.10378013056635 108.88687017338563 1 0 0
7110 0 1 0 9.453305485741021 93.36184029063725 108.88299057154667 1 0 0
7101 0 1 0 8.713176349674372 94.63222813242191 108.82417029607907 1 0 0
7100 0 1 0 7.334133657643381 94.60187734758682 108.89102784373101 1 0 0
7162 0 1 0 9.479004877926746 95.88105251462802 108.81524578103563 1 0 0
7151 0 1 0 6.597540198840077 95.8431376051437 108.96530098805519 1 0 0
7142 0 1 0 5.212657155627873 95.81552863174073 108.95381972438537 1 0 0
7152 0 1 0 7.330277234009633 97.098324908905 108.91154556278252 1 0 0
7163 0 1 0 8.756816804421051 97.072574216496 108.82672863910315 1 0 0
6464 0 1 0 0.9255959165058625 98.3187326838402 109.02281026639857 1 0 0
6465 0 1 0 0.1486147352348684 99.59415089586926 109.06968129335867 1 0 0
6473 0 1 0 2.341091885262361 98.37073367693772 108.96626538398041 1 0 0
6474 0 1 0 3.0219078523095164 99.6117726236943 109.04596861766346 1 0 0
6475 0 1 0 2.2815868659330194 100.79698307159907 108.9116070271425 1 0 0
6466 0 1 0 0.8798078788557981 100.76695940380785 109.03155403634939 1 0 0
6425 0 1 0 4.462944455475958 99.59907401469694 108.98646426959905 1 0 0
7165 0 1 0 8.76198417225458 99.58224362489204 108.95905599527397 1 0 0
7154 0 1 0 7.298344214136227 99.61820433718533 108.9003666060827 1 0 0
7153 0 1 0 6.650291400102846 98.38057646059713 108.91716730833686 1 0 0
7155 0 1 0 6.5708252701295935 100.87659512803965 108.98265161123268 1 0 0
7166 0 1 0 9.399344451138727 100.84391884508203 109.05731320477047 1 0 0
7146 0 1 0 5.137735187084923 100.86461762170629 108.89853006721182 1 0 0
7144 0 1 0 5.175421740895255 98.34480905870291 108.96236025753747 1 0 0
7164 0 1 0 9.488282167663455 98.35613051740503 108.92760423506797 1 0 0
6427 0 1 0 4.41570006826799 102.10107919324723 109.00257395907335 1 0 0