LAMMPS (4 Feb 2025)
OMP_NUM_THREADS environment is not set. Defaulting to 1 thread. (src/comm.cpp:99)
  using 1 OpenMP thread(s) per MPI task
# LAMMPS script for running NVT simulation

units       metal
dimension   3
boundary    p p p
atom_style  full
atom_modify map yes

newton      on

read_data   ../start.lammps-data
Reading data file ...
  orthogonal box = (0 0 0) to (156.31812 150.41718 151.07317)
  16 by 8 by 8 MPI processor grid
  reading atoms ...
  11640 atoms
  reading velocities ...
  11640 velocities
Finding 1-2 1-3 1-4 neighbors ...
  special bond factors lj:    0        0        0       
  special bond factors coul:  0        0        0       
     0 = max # of 1-2 neighbors
     0 = max # of 1-3 neighbors
     0 = max # of 1-4 neighbors
     1 = max # of special neighbors
  special bonds CPU = 5.978 seconds
  read_data CPU = 6.131 seconds

pair_style  symmetrix/mace
pair_coeff  * * ../../../00-common/models/ch2o-dens-inv_swa-1-6-8.json C H O
Loading MACE model from '../../../00-common/models/ch2o-dens-inv_swa-1-6-8.json' ... success
  mapping LAMMPS type 1 (C) to MACE type 1
  mapping LAMMPS type 2 (H) to MACE type 0
  mapping LAMMPS type 3 (O) to MACE type 2

variable t equal step

group graphene type 1
8640 atoms in group graphene
group H2O type 2 3
3000 atoms in group H2O

thermo 1000

######### NVT equilibration for 80 ps #############

dump DUMP1 all atom 100 nvt_equi.lammpstrj
timestep 0.001
fix NVT1 graphene nvt temp 300 300 0.1
fix NVT2 H2O nvt temp 300 300 0.1
run 80000
Neighbor list info ...
  update: every = 1 steps, delay = 0 steps, check = yes
  max neighbors/atom: 2000, page size: 100000
  master list distance cutoff = 8
  ghost atom cutoff = 8
  binsize = 4, bins = 40 38 38
  1 neighbor lists, perpetual/occasional/extra = 1 0 0
  (1) pair symmetrix/mace, perpetual
      attributes: full, newton on
      pair build: full/bin
      stencil: full/bin/3d
      bin: standard
Per MPI rank memory allocation (min/avg/max) = 5.921 | 6.238 | 8.658 Mbytes
   Step          Temp          E_pair         E_mol          TotEng         Press     
         0   78.173347     -1810107.7      0             -1809990.1     -2282.9384    
      1000   82.819745     -1810108.3      0             -1809983.7     -2311.9715    
      2000   140.29468     -1810021        0             -1809809.9     -2558.7669    
      3000   295.56654     -1809802.7      0             -1809358       -2916.686     
      4000   309.62849     -1809787.3      0             -1809321.5     -2832.8604    
      5000   298.42045     -1809805        0             -1809356       -2703.9292    
      6000   297.5326      -1809776.3      0             -1809328.7     -2775.6214    
      7000   300.22464     -1809797.7      0             -1809346       -2697.6516    
      8000   301.70526     -1809793.1      0             -1809339.2     -2653.9945    
      9000   304.01232     -1809796.2      0             -1809338.8     -2625.7403    
     10000   303.68041     -1809805.6      0             -1809348.8     -2602.2227    
     11000   303.39608     -1809782.3      0             -1809325.9     -2568.384     
     12000   294.27467     -1809793.7      0             -1809351       -2543.5575    
     13000   301.75628     -1809796.3      0             -1809342.4     -2523.0515    
     14000   300.23212     -1809785.6      0             -1809334       -2498.0139    
     15000   302.77423     -1809795.6      0             -1809340       -2444.7333    
     16000   298.34376     -1809801.1      0             -1809352.3     -2470.783     
     17000   304.35021     -1809792.2      0             -1809334.3     -2456.8962    
     18000   304.10536     -1809798.9      0             -1809341.4     -2427.856     
     19000   297.64726     -1809805.7      0             -1809357.9     -2430.5409    
     20000   304.94579     -1809793.7      0             -1809334.9     -2413.4371    
     21000   301.29761     -1809798.3      0             -1809345       -2381.4375    
     22000   297.84809     -1809799.6      0             -1809351.5     -2393.3216    
     23000   303.69672     -1809806.5      0             -1809349.6     -2372.3797    
     24000   301.03125     -1809802        0             -1809349.1     -2371.1984    
     25000   299.21342     -1809804        0             -1809353.8     -2351.3357    
     26000   301.20995     -1809805.4      0             -1809352.3     -2343.2793    
     27000   298.26091     -1809796.1      0             -1809347.4     -2334.7777    
     28000   299.57297     -1809805.7      0             -1809355       -2338.5586    
     29000   299.7271      -1809802        0             -1809351.1     -2315.772     
     30000   298.07589     -1809810.2      0             -1809361.8     -2294.7358    
     31000   299.81084     -1809799.9      0             -1809348.9     -2290.7227    
     32000   296.81363     -1809801.7      0             -1809355.1     -2298.1167    
     33000   299.2883      -1809810.9      0             -1809360.6     -2307.0123    
     34000   301.45037     -1809801.3      0             -1809347.8     -2292.3761    
     35000   300.61578     -1809807.9      0             -1809355.7     -2274.0922    
     36000   298.18593     -1809800.2      0             -1809351.6     -2304.4952    
     37000   300.43651     -1809809.7      0             -1809357.7     -2272.8325    
     38000   300.24105     -1809806.8      0             -1809355.1     -2275.9036    
     39000   299.24821     -1809809.1      0             -1809358.9     -2279.3541    
     40000   304.30476     -1809808.6      0             -1809350.8     -2268.911     
     41000   300.58392     -1809799        0             -1809346.8     -2269.94      
     42000   297.21024     -1809806.3      0             -1809359.1     -2268.5377    
     43000   303.1838      -1809809.8      0             -1809353.7     -2256.5318    
     44000   303.35258     -1809815.4      0             -1809359       -2243.0641    
     45000   298.57248     -1809810.3      0             -1809361.1     -2269.927     
     46000   302.52659     -1809808.5      0             -1809353.4     -2258.4429    
     47000   299.90357     -1809806.5      0             -1809355.3     -2240.6062    
     48000   298.68063     -1809805.6      0             -1809356.3     -2240.4971    
     49000   293.52085     -1809802.2      0             -1809360.7     -2237.4078    
     50000   298.2491      -1809802.6      0             -1809353.9     -2251.0126    
     51000   298.65859     -1809802.9      0             -1809353.6     -2243.064     
     52000   299.53737     -1809812.3      0             -1809361.7     -2235.1089    
     53000   298.62971     -1809809        0             -1809359.7     -2244.0159    
     54000   301.84687     -1809813.8      0             -1809359.7     -2230.8719    
     55000   296.92787     -1809809.2      0             -1809362.5     -2210.2552    
     56000   302.66403     -1809805.2      0             -1809349.9     -2217.926     
     57000   299.43511     -1809807.8      0             -1809357.3     -2216.8664    
     58000   299.62296     -1809808.4      0             -1809357.7     -2226.2371    
     59000   300.08243     -1809813.2      0             -1809361.8     -2223.7688    
     60000   301.60034     -1809805.2      0             -1809351.5     -2217.5664    
     61000   301.03541     -1809814        0             -1809361.1     -2230.845     
     62000   300.63735     -1809809        0             -1809356.7     -2222.2679    
     63000   300.87111     -1809808.7      0             -1809356.1     -2230.7807    
     64000   295.77294     -1809808.6      0             -1809363.6     -2225.4285    
     65000   294.40139     -1809807.5      0             -1809364.6     -2221.1977    
     66000   304.4118      -1809809.2      0             -1809351.2     -2210.8874    
     67000   300.33672     -1809813.8      0             -1809361.9     -2217.1525    
     68000   302.13307     -1809808.5      0             -1809354       -2203.6741    
     69000   301.32406     -1809809.4      0             -1809356.1     -2211.069     
     70000   296.57879     -1809809.8      0             -1809363.6     -2205.1513    
     71000   302.58792     -1809813        0             -1809357.8     -2199.2386    
     72000   301.68655     -1809807.4      0             -1809353.5     -2217.4009    
     73000   298.69265     -1809806.2      0             -1809356.9     -2219.903     
     74000   298.93306     -1809807        0             -1809357.3     -2200.9141    
     75000   299.90464     -1809807.6      0             -1809356.5     -2209.0343    
     76000   300.0507      -1809808.6      0             -1809357.1     -2210.7612    
     77000   300.75009     -1809819.9      0             -1809367.4     -2210.8659    
     78000   300.60785     -1809808.4      0             -1809356.1     -2213.848     
     79000   299.31993     -1809813.8      0             -1809363.5     -2215.4778    
     80000   299.0408      -1809816.1      0             -1809366.2     -2201.2888    
Loop time of 61591.5 on 1024 procs for 80000 steps with 11640 atoms

Performance: 0.112 ns/day, 213.860 hours/ns, 1.299 timesteps/s, 15.119 katom-step/s
100.0% CPU use with 1024 MPI tasks x 1 OpenMP threads

MPI task timing breakdown:
Section |  min time  |  avg time  |  max time  |%varavg| %total
---------------------------------------------------------------
Pair    | 0.15264    | 5598.6     | 52200      |14353.1 |  9.09
Bond    | 0.0031958  | 0.0074139  | 0.042631   |   7.4 |  0.00
Neigh   | 0.018197   | 0.13856    | 3.3161     |  90.4 |  0.00
Comm    | 0.49175    | 2068.5     | 24707      |9738.3 |  3.36
Output  | 0.60216    | 4.5812     | 8.7228     | 112.5 |  0.01
Modify  | 1210.1     | 53913      | 61580      |6166.8 | 87.53
Other   |            | 6.303      |            |       |  0.01

Nlocal:        11.3672 ave         332 max           0 min
Histogram: 892 3 112 4 1 2 2 2 2 4
Nghost:         96.418 ave        1539 max           0 min
Histogram: 754 105 127 20 7 5 2 1 2 1
Neighs:              0 ave           0 max           0 min
Histogram: 1024 0 0 0 0 0 0 0 0 0
FullNghs:      1169.88 ave       62153 max           0 min
Histogram: 1002 7 2 1 3 1 2 1 1 4

Total # of neighbors = 1197958
Ave neighs/atom = 102.91735
Ave special neighs/atom = 0
Neighbor list builds = 3843
Dangerous builds = 0

write_restart nvt_equi.restart.*
System init for write_restart ...
write_data nvt_equi_final.lammps-data
System init for write_data ...

Total wall time: 17:06:57
