LAMMPS data file via write_data, version 4 Feb 2025, timestep = 80000, units = metal

11640 atoms
3 atom types

0 156.31811999999996 xlo xhi
0 150.41718110202703 ylo yhi
0 151.07316997686289 zlo zhi

Masses

1 12.01099999691024
2 1.007999999740698
3 15.99899999588435

Atoms # full

1653 0 1 0 1.4155278354074845 4.609961601745686 22.258174926561406 0 2 0
1420 0 1 0 0.7250919851421637 5.839304114258094 22.301511587859036 0 2 0
1659 0 1 0 3.5829714155792174 5.843018176673779 22.251142372800544 0 2 0
1654 0 1 0 2.8508511297021815 4.584979233566382 22.25105439530061 0 2 0
1416 0 1 0 0.6654088005673172 3.349547860746804 22.277272557619654 0 2 0
1655 0 1 0 3.543469656846381 3.304389218964667 22.216021150423163 0 2 0
1660 0 1 0 5.012560629827832 5.800076860782541 22.146822627361782 0 2 0
1899 0 1 0 7.931196077441304 5.87475603429618 22.026116361085574 0 2 0
1894 0 1 0 7.1773324329319275 4.647099243607431 21.98711473313095 0 2 0
1893 0 1 0 5.711628562061582 4.549820563142936 22.065026660202083 0 2 0
1895 0 1 0 7.907719830098938 3.3733505293428525 22.051106626246785 0 2 0
1656 0 1 0 5.022002426647424 3.3172429943086073 22.170010645774923 0 2 0
1900 0 1 0 9.3987264069925 5.901778856265018 22.064994816299365 0 2 0
1896 0 1 0 9.38095118932167 3.3746775397399844 22.09428372038476 0 2 0
1658 0 1 0 2.8361732370146715 7.077401476247649 22.25969230136878 0 2 0
1663 0 1 0 3.5417883106151407 8.34738396055265 22.178534027669905 0 2 0
1424 0 1 0 0.6644395067420532 8.34760422718393 22.350493218032245 0 2 0
1657 0 1 0 1.3964688712276618 7.1328212210990145 22.24298238225832 0 2 0
1428 0 1 0 0.6712993639347736 10.859095024872842 22.383782285906683 0 2 0
1667 0 1 0 3.5304654445157393 10.830000886476865 22.176748094154878 0 2 0
1661 0 1 0 1.377353312456179 9.576689225980008 22.32478202223502 0 2 0
1662 0 1 0 2.7952570966510244 9.578809623833061 22.237517003137732 0 2 0
1898 0 1 0 7.183611321054387 7.145354616743852 22.054002791434105 0 2 0
1664 0 1 0 4.984144243325585 8.347636396366866 22.169420011159428 0 2 0
1903 0 1 0 7.879152479455889 8.393964253647027 22.091055725764704 0 2 0
1897 0 1 0 5.730553147816239 7.110955701802444 22.07335010705359 0 2 0
1907 0 1 0 7.901507156310493 10.91051952483385 22.21447409246489 0 2 0
1668 0 1 0 4.986488544194621 10.855141375688872 22.223704395862153 0 2 0
1901 0 1 0 5.740190529655063 9.611688531165017 22.15052723921433 0 2 0
1902 0 1 0 7.1953352835948055 9.64357747568424 22.19542408502805 0 2 0
1904 0 1 0 9.317268387822693 8.357326113353722 22.05344089521091 0 2 0
1908 0 1 0 9.357138305499745 10.864825751659616 22.230122378625293 0 2 0
1432 0 1 0 0.6857323285882924 13.331981115792829 22.260196077551818 0 2 0
1666 0 1 0 2.8418437955010094 12.092451916318833 22.308420782556293 0 2 0
1665 0 1 0 1.3968582285905784 12.079429836073746 22.26963032486965 0 2 0
1671 0 1 0 3.5338797687990144 13.411446448803455 22.337509288164995 0 2 0
1669 0 1 0 1.3598490847435605 14.62441000775109 22.324389709632506 0 2 0
1670 0 1 0 2.78139051569751 14.650298031814799 22.416441263464968 0 2 0
1436 0 1 0 0.6216100106764847 15.860470079582196 22.375493823503035 0 2 0
1675 0 1 0 3.489665819347039 15.886509484782163 22.47634323138173 0 2 0
1905 0 1 0 5.697754856341818 12.126391107361266 22.29103671755981 0 2 0
1672 0 1 0 4.953359625760014 13.410166933097038 22.346790122094816 0 2 0
1911 0 1 0 7.879492997818163 13.415134864340963 22.242596238505335 0 2 0
1906 0 1 0 7.182450314699183 12.131770550689588 22.291143162556185 0 2 0
1910 0 1 0 7.116840554553635 14.64131751845882 22.26715788472859 0 2 0
1909 0 1 0 5.682574847938947 14.656947589427972 22.364003485950867 0 2 0
1915 0 1 0 7.845827375239859 15.90970615026864 22.134347116902468 0 2 0
1676 0 1 0 4.961064080866751 15.929828374937076 22.384110580122183 0 2 0
1912 0 1 0 9.330148403280068 13.393889104767904 22.04715251295676 0 2 0
1916 0 1 0 9.276010498411111 15.901201657700264 21.97055228401568 0 2 0
1673 0 1 0 1.357912021551973 17.1457517441982 22.415796266884076 0 2 0
1674 0 1 0 2.8041809100960013 17.122750217022904 22.49888704496777 0 2 0
1440 0 1 0 0.6837890353981438 18.391826786488018 22.41179092022301 0 2 0
1679 0 1 0 3.518253709297363 18.404970810327505 22.50929577896857 0 2 0
1891 0 1 0 7.871259531373291 0.8538453190558438 22.043339879211278 0 2 0
1892 0 1 0 9.336844189518635 0.8712033708244257 21.91500115582539 0 2 0
1889 0 1 0 5.745344078107245 2.0721394289637414 22.1602110573695 0 2 0
1412 0 1 0 0.6685534010521267 0.8503549168264073 22.275288478871484 0 2 0
1913 0 1 0 5.734045602358421 17.15161034756358 22.311114350013757 0 2 0
1914 0 1 0 7.131707502023336 17.16512254720602 22.20940837483488 0 2 0
1680 0 1 0 4.968072910560921 18.43025211919539 22.438610949456336 0 2 0
1919 0 1 0 7.885388565139735 18.433549187147964 22.16651074275859 0 2 0
1652 0 1 0 5.049304017305761 0.8303637371416906 22.28473390927082 0 2 0
1920 0 1 0 9.305460489289146 18.405387523350335 22.168495558997574 0 2 0
1650 0 1 0 2.9124972672256275 2.0564100119036977 22.2764321240321 0 2 0
1649 0 1 0 1.4606077542332678 2.0872150360587574 22.272126064721718 0 2 0
1890 0 1 0 7.158092489105142 2.121080905613249 22.058330229693603 0 2 0
1651 0 1 0 3.6490992840286567 0.7704558851634747 22.32674587000712 0 2 0
1445 0 1 0 1.4190113680263745 24.631195212903943 22.42297036449928 0 1 0
1446 0 1 0 2.8765015558178986 24.661468233942607 22.398748275620974 0 1 0
1208 0 1 0 0.700164768899497 23.366551637935842 22.40229028790033 0 1 0
1447 0 1 0 3.618049975650988 23.396046141890956 22.4633542925103 0 1 0
1442 0 1 0 2.871902056655054 22.114371983584856 22.593625628497342 0 1 0
1441 0 1 0 1.3969808301215738 22.117466276765697 22.501849563565393 0 1 0
1685 0 1 0 5.791401712030836 24.686838492593417 22.304187040449015 0 1 0
1686 0 1 0 7.216153067618471 24.698918287609175 22.41357698864299 0 1 0
1448 0 1 0 5.035788043498609 23.422342579596563 22.391352332801105 0 1 0
1687 0 1 0 7.950473921298912 23.456525401733618 22.438326058006645 0 1 0
1682 0 1 0 7.209392554917955 22.215832310000877 22.367606899553067 0 1 0
1681 0 1 0 5.784791408738604 22.198177471658237 22.402869447053572 0 1 0
1688 0 1 0 9.357878693314788 23.402476777159933 22.382182772738137 0 1 0
1451 0 1 0 3.5844049413913703 25.986865052368465 22.34531659340963 0 1 0
1212 0 1 0 0.7509682887842253 25.884789784944314 22.36542779067064 0 1 0
1450 0 1 0 2.885494461368114 27.220406701458696 22.35502988459734 0 1 0
1449 0 1 0 1.4656803362213235 27.164822369059834 22.27786624794263 0 1 0
1453 0 1 0 1.4338826180144422 29.724867461920063 22.236660296948767 0 1 0
1454 0 1 0 2.903567196828299 29.72731099666539 22.353443658947914 0 1 0
1455 0 1 0 3.6260037443883206 28.487606700296435 22.316134712154618 0 1 0
1216 0 1 0 0.7261215748654536 28.411692941358268 22.29834880960921 0 1 0
1452 0 1 0 5.046765127446615 25.91840365459977 22.358444143699995 0 1 0
1691 0 1 0 7.933909509921965 25.919245968018597 22.516076939122087 0 1 0
1690 0 1 0 7.240763358664469 27.204534570430923 22.485272338211033 0 1 0
1689 0 1 0 5.808201731140948 27.171574115699652 22.303751390850277 0 1 0
1693 0 1 0 5.7780386373004236 29.722517413195277 22.297110740967312 0 1 0
1694 0 1 0 7.200069199973732 29.724506841184112 22.495772071033173 0 1 0
1456 0 1 0 5.090845487820295 28.432549779126905 22.26763359165515 0 1 0
1695 0 1 0 7.962358386571213 28.424409066050018 22.490807773501494 0 1 0
1692 0 1 0 9.373539064555839 25.903542275510347 22.501835666541204 0 1 0
1696 0 1 0 9.426327068361369 28.370727750325354 22.43351664936038 0 1 0
1220 0 1 0 0.6952584831726483 30.940520214530224 22.244247725147684 0 1 0
1458 0 1 0 2.8469023985775106 32.20016990211665 22.136675467430926 0 1 0
1457 0 1 0 1.4069471510574107 32.165076583757006 22.074563733630434 0 1 0
1459 0 1 0 3.57919706000961 30.985585503886636 22.221323114616517 0 1 0
1224 0 1 0 0.6614613336571531 33.44495340913214 22.023645931296628 0 1 0
1463 0 1 0 3.5551499208815307 33.44428277473322 22.09521026496542 0 1 0
1461 0 1 0 1.3314184501194635 34.6910834667496 22.008887731304767 0 1 0
1462 0 1 0 2.8270650419384373 34.677210066586454 22.027947610362805 0 1 0
1699 0 1 0 7.946444688427998 30.942705212694985 22.363144790598145 0 1 0
1697 0 1 0 5.783414736033625 32.1985194386725 22.191059089547807 0 1 0
1698 0 1 0 7.223511627444227 32.19603780088234 22.234146773115224 0 1 0
1460 0 1 0 5.030145495692984 30.96148427420248 22.17387634918969 0 1 0
1702 0 1 0 7.191067858127819 34.690583199429966 22.17315801980181 0 1 0
1701 0 1 0 5.727202358748936 34.72132065830514 22.084775643559535 0 1 0
1464 0 1 0 5.046564926673811 33.43172496105102 22.139513285279616 0 1 0
1703 0 1 0 7.914065539594827 33.460340384716865 22.206270186970112 0 1 0
1704 0 1 0 9.340482413744677 33.44465807109706 22.322401853842713 0 1 0
1700 0 1 0 9.404058816087977 30.92938071703051 22.401073998864785 0 1 0
1228 0 1 0 0.6712543945311895 35.93812802579703 22.10447116554863 0 1 0
1467 0 1 0 3.555419392361153 35.930131448275404 22.07686894150116 0 1 0
1465 0 1 0 1.4020059229655573 37.2144345377507 22.148002391641203 0 1 0
1466 0 1 0 2.805206002684612 37.18839914855578 22.20468255592128 0 1 0
1918 0 1 0 7.150511262154464 19.703070447722304 22.333579475192508 0 2 0
1444 0 1 0 5.047907216462674 20.920225221019958 22.423847810116204 0 1 0
1708 0 1 0 9.373069611559194 35.942018836991075 22.211869781477972 0 1 0
1683 0 1 0 7.866047221933784 20.89982421315631 22.312710891340156 0 1 0
1468 0 1 0 4.979101759228042 35.96567845520768 22.058441331096596 0 1 0
1707 0 1 0 7.898887536041138 35.923519582398505 22.14274392792449 0 1 0
1705 0 1 0 5.723055193752934 37.192628663510746 22.073132506480423 0 1 0
1706 0 1 0 7.212017539406904 37.182701848825026 22.109777638869424 0 1 0
1917 0 1 0 5.699970033311348 19.644755132546404 22.43662571624914 0 2 0
1678 0 1 0 2.8524382985390644 19.596497323636118 22.581294357041077 0 2 0
1443 0 1 0 3.5909517458204805 20.86556554533594 22.528513805706 0 1 0
1684 0 1 0 9.350842860426908 20.927917353846524 22.311356875355877 0 1 0
1204 0 1 0 0.6537321444229712 20.889857409476647 22.376408552274953 0 1 0
1677 0 1 0 1.3788540693222557 19.655512077218027 22.489693028560865 0 2 0
1479 0 1 0 3.529447144883522 43.480019421841874 22.140900015503327 0 1 0
1240 0 1 0 0.657068041626456 43.47185439938408 22.0376033285791 0 1 0
1474 0 1 0 2.839381660521264 42.1767629120064 22.12818448454872 0 1 0
1473 0 1 0 1.3462915505131505 42.190521492162176 22.110638495635367 0 1 0
1475 0 1 0 3.54028973737697 40.938030146304065 22.095018186153002 0 1 0
1236 0 1 0 0.6198419150414202 40.90713155847507 22.16008468031306 0 1 0
1719 0 1 0 7.883370904718252 43.456751488059396 22.397628243371994 0 1 0
1480 0 1 0 4.976781138630729 43.46529915738083 22.110117883130833 0 1 0
1714 0 1 0 7.143490813176211 42.21284245646312 22.242079758941525 0 1 0
1713 0 1 0 5.720878153535243 42.22492713721933 22.157582532798138 0 1 0
1715 0 1 0 7.917671738167343 40.93259498807433 22.21179224136255 0 1 0
1476 0 1 0 4.9733284273418015 40.979794273095024 22.060294273739675 0 1 0
1720 0 1 0 9.329105058452082 43.39371276582136 22.300748560502495 0 1 0
1716 0 1 0 9.386825026399949 40.960548874304976 22.23582357272264 0 1 0
1483 0 1 0 3.5376023809990547 45.986191767975406 21.965331748870636 0 1 0
1244 0 1 0 0.6420218051942111 45.962387679850245 21.93704482248816 0 1 0
1478 0 1 0 2.800037863843389 44.695705881420565 22.00361277670786 0 1 0
1477 0 1 0 1.3430298475337556 44.70131217002908 21.959292225808177 0 1 0
1248 0 1 0 0.6866882365017741 48.477932491031396 21.928495049870413 0 1 0
1482 0 1 0 2.803044704982074 47.231888159900684 21.96463910916311 0 1 0
1481 0 1 0 1.405206969017422 47.17646063195215 22.00607381989599 0 1 0
1487 0 1 0 3.535834974400518 48.487339710879866 21.952011483156635 0 1 0
1718 0 1 0 7.181984419499538 44.71460715107391 22.265167913264975 0 1 0
1723 0 1 0 7.936325603130372 45.937704946413334 22.185343411953887 0 1 0
1484 0 1 0 4.98688232529376 45.97551023744988 22.018398930246644 0 1 0
1717 0 1 0 5.717369132162731 44.73650681742977 22.123992946027023 0 1 0
1488 0 1 0 4.981777903161169 48.457369166572725 22.01630346839161 0 1 0
1721 0 1 0 5.7153436091291505 47.210615249828166 22.105766758339293 0 1 0
1722 0 1 0 7.131338198861294 47.15396592487811 22.059923517399543 0 1 0
1727 0 1 0 7.84332723584499 48.406698807033216 21.82796210165695 0 1 0
1728 0 1 0 9.304649551053783 48.402067273458144 21.92603702329899 0 1 0
1724 0 1 0 9.32970654993504 45.91956347195153 22.213269054978237 0 1 0
1252 0 1 0 0.6176428628486388 50.943315672844285 21.904305142170735 0 1 0
1485 0 1 0 1.382877155446959 49.6796317622052 21.909066317374585 0 1 0
1486 0 1 0 2.8101772941554306 49.70404512884739 21.890647234102296 0 1 0
1491 0 1 0 3.5221205362838703 50.95523566884668 21.781727557854612 0 1 0
1489 0 1 0 1.2885450921920092 52.25236100926893 21.905948513496828 0 1 0
1490 0 1 0 2.7692883739869965 52.26561705243061 21.78087534878392 0 1 0
1256 0 1 0 0.6379223130168404 53.47990540225976 21.958386320981937 0 1 0
1495 0 1 0 3.476304317123039 53.56073962057086 21.80507708710416 0 1 0
1731 0 1 0 7.866290558385399 50.98216997921406 21.855261010346165 0 1 0
1492 0 1 0 4.971012866013007 50.96382620507138 21.822798577454876 0 1 0
1726 0 1 0 7.1606599184732325 49.68798513633088 21.931075496448713 0 1 0
1725 0 1 0 5.736369846950419 49.75517830167723 21.922206583438616 0 1 0
1730 0 1 0 7.073700948931776 52.228900516155186 21.93876151319099 0 1 0
1729 0 1 0 5.6316362569611105 52.25641692192836 21.870943672198393 0 1 0
1735 0 1 0 7.851407868657543 53.450372180991465 21.984534438912416 0 1 0
1496 0 1 0 4.929187414697538 53.55552803928398 21.853501648735783 0 1 0
1736 0 1 0 9.281624234703898 53.499201574017995 21.981371640840123 0 1 0
1732 0 1 0 9.314175110503243 50.996911738812706 21.85689269137367 0 1 0
1493 0 1 0 1.3028122865940706 54.80523428021391 21.93742717054669 0 1 0
1494 0 1 0 2.75767115303568 54.79254444209505 21.911442025095067 0 1 0
1260 0 1 0 0.5251155047208158 56.00197963336632 22.014273451410084 0 1 0
1499 0 1 0 3.4380136187286614 56.022585667699396 21.91295537535202 0 1 0
1470 0 1 0 2.8374357388917324 39.69989846857911 22.125870380248813 0 1 0
1712 0 1 0 9.359396382286818 38.44829864477465 22.180039516621335 0 1 0
1740 0 1 0 9.329718865564088 55.98971907916191 22.12388509045269 0 1 0
1471 0 1 0 3.5475295143637204 38.44761358584699 22.123578312079353 0 1 0
1733 0 1 0 5.655315721820564 54.80062100900963 21.852320037584995 0 1 0
1734 0 1 0 7.099481611091408 54.72804426657956 21.9596844883429 0 1 0
1500 0 1 0 4.881777773072111 56.01653063824343 21.911816500114668 0 1 0
1739 0 1 0 7.871248753149058 55.985424656911704 22.028445881650093 0 1 0
1709 0 1 0 5.709803318290341 39.70683409274262 22.07250484070355 0 1 0
1710 0 1 0 7.168236379433191 39.72470724485899 22.0664832815872 0 1 0
1469 0 1 0 1.424037285660696 39.67765262683007 22.13279721281799 0 1 0
1232 0 1 0 0.7071194161201028 38.463538971905884 22.202497400969186 0 1 0
1711 0 1 0 7.916061118734421 38.44452685495589 22.145082312057475 0 1 0
1472 0 1 0 4.995176814300342 38.438402100667 22.0825912217402 0 1 0
1505 0 1 0 1.3045283848809621 62.25592501529429 22.290227721331284 0 1 0
1506 0 1 0 2.76967944938225 62.257101050266144 22.182233094143466 0 1 0
1268 0 1 0 0.5457549940817228 61.03425172372443 22.229873975281535 0 1 0
1507 0 1 0 3.4705088887675584 61.03092355270548 22.165110283205514 0 1 0
1502 0 1 0 2.787734018592866 59.802442626979776 22.08776959047674 0 1 0
1501 0 1 0 1.3549243311574124 59.809982021113555 22.119516616205228 0 1 0
1746 0 1 0 7.099279899534229 62.25433287545847 22.173342958890668 0 1 0
1745 0 1 0 5.69177478526217 62.33849826544384 22.20120980690849 0 1 0
1747 0 1 0 7.881298670169334 61.01498429116783 22.17474004823244 0 1 0
1508 0 1 0 4.981713524037638 61.019418340969494 22.168979383063743 0 1 0
1742 0 1 0 7.186164847700992 59.76521128928536 22.122980178567037 0 1 0
1741 0 1 0 5.686158479549529 59.751707748691835 22.08659089381048 0 1 0
1748 0 1 0 9.316585555978294 60.99613142098406 22.103288525196888 0 1 0
1511 0 1 0 3.4758704283717865 63.483160001096216 22.267302780569654 0 1 0
1510 0 1 0 2.7687081581597286 64.74940941662507 22.299890238028965 0 1 0
1509 0 1 0 1.3257987426272544 64.78687505252134 22.244765069379685 0 1 0
1272 0 1 0 0.6186066750639782 63.52535348586905 22.247901008566828 0 1 0
1514 0 1 0 2.794660706990362 67.30826463699881 22.37151815363994 0 1 0
1276 0 1 0 0.6295538096280033 66.0419081089427 22.28604121497741 0 1 0
1513 0 1 0 1.3671052762961013 67.27869254212983 22.345420546063295 0 1 0
1515 0 1 0 3.5155475333063544 66.026605328152 22.33929254221975 0 1 0
1749 0 1 0 5.671527711304897 64.80936689270459 22.305268728888702 0 1 0
1751 0 1 0 7.830118103291133 63.516708794368064 22.214502031266285 0 1 0
1750 0 1 0 7.136608280348988 64.7990801299962 22.280458253648135 0 1 0
1512 0 1 0 4.92959859449648 63.54062934294932 22.16822023236087 0 1 0
1755 0 1 0 7.8525881640323805 66.02959732634795 22.28882506714619 0 1 0
1753 0 1 0 5.706044090455879 67.30348211285505 22.360121944406018 0 1 0
1754 0 1 0 7.131722560172115 67.30174759430572 22.30532364909819 0 1 0
1516 0 1 0 4.981848399210981 66.05440149073682 22.300060750659217 0 1 0
1756 0 1 0 9.34949295593724 66.07083918346409 22.21997693718129 0 1 0
1752 0 1 0 9.297165701464913 63.537496751913515 22.13734092594223 0 1 0
1518 0 1 0 2.831316575077053 69.80625344285107 22.26955384481358 0 1 0
1517 0 1 0 1.370041266877814 69.83265895114366 22.310381349841332 0 1 0
1280 0 1 0 0.6785120472176392 68.5745827349503 22.34405737924143 0 1 0
1519 0 1 0 3.5219897112023175 68.56623586991797 22.345426507986478 0 1 0
1522 0 1 0 2.7940882886983 72.31675960974249 22.19223240135657 0 1 0
1284 0 1 0 0.6125676797380872 71.02354978014404 22.194668820032717 0 1 0
1521 0 1 0 1.3584504723755098 72.27447269626113 22.162466074045163 0 1 0
1523 0 1 0 3.519400397166144 71.05362858473403 22.22871664564361 0 1 0
1759 0 1 0 7.868091122003923 68.51969023220765 22.239519215566407 0 1 0
1520 0 1 0 4.967961590611198 68.53872912619867 22.455573846542915 0 1 0
1758 0 1 0 7.1560851278344 69.7707968225318 22.335170777843356 0 1 0
1757 0 1 0 5.714108686310658 69.80350193863501 22.362375448907194 0 1 0
1524 0 1 0 4.954072638827926 71.05695219378495 22.281666719483074 0 1 0
1763 0 1 0 7.86386431339029 71.04749404515454 22.265573736416737 0 1 0
1762 0 1 0 7.098474002877087 72.27169515094904 22.235243722683695 0 1 0
1761 0 1 0 5.64750336364666 72.30793099956418 22.209865467323223 0 1 0
1760 0 1 0 9.297831472334519 68.58730331510579 22.26621295209759 0 1 0
1764 0 1 0 9.287174758554038 71.07394806587773 22.2242826864863 0 1 0
1288 0 1 0 0.5807121157661095 73.52179256394115 21.976891535788578 0 1 0
1527 0 1 0 3.493834979038718 73.58676445953361 22.166393040009027 0 1 0
1525 0 1 0 1.2999434392520335 74.77413500688345 21.941214736888373 0 1 0
1526 0 1 0 2.7550168904053556 74.83415479538178 22.03497226034066 0 1 0
1743 0 1 0 7.834836758656568 58.51332842860639 22.12256800079561 0 1 0
1744 0 1 0 9.310656758952357 58.48374072589817 22.13545366370115 0 1 0
1504 0 1 0 5.0083240047091735 58.54046437145239 22.011504250350338 0 1 0
1738 0 1 0 7.135779966866396 57.23219432632361 22.027596647724234 0 1 0
1528 0 1 0 4.9475903282515885 73.57733516853546 22.165034560166273 0 1 0
1767 0 1 0 7.844533317882809 73.49727631741186 21.982421564604163 0 1 0
1765 0 1 0 5.67151448047197 74.87286866713852 22.14084962266729 0 1 0
1766 0 1 0 7.0659462110515525 74.82267143642554 22.03771458589884 0 1 0
1768 0 1 0 9.303428945007097 73.5406013751256 21.98521321017018 0 1 0
1497 0 1 0 1.3182478133219784 57.29164946675882 22.0491003207773 0 1 0
1503 0 1 0 3.5271064054524266 58.540744118194624 22.006802297089205 0 1 0
1264 0 1 0 0.6352395321241319 58.52879544086345 22.07775932866792 0 1 0
1498 0 1 0 2.747441837535035 57.279732125211105 21.97202925469801 0 1 0
1737 0 1 0 5.6604066274272595 57.253818551663784 22.013782567867977 0 1 0
1300 0 1 0 0.6471560326865554 81.0863168052462 21.93941892900658 0 1 0
1534 0 1 0 2.808164054996131 79.77644966712244 21.72873060740818 0 1 0
1539 0 1 0 3.517709304794936 81.08761378586692 21.767493804941992 0 1 0
1533 0 1 0 1.368498998409353 79.8154461085693 21.9297015184091 0 1 0
1296 0 1 0 0.5321377423375427 78.59503335855797 21.98800248597138 0 1 0
1535 0 1 0 3.5111208186748097 78.56761512339415 21.86790922792792 0 1 0
1774 0 1 0 7.112164222353273 79.79612334496119 21.84893010192653 0 1 0
1779 0 1 0 7.824071672835656 81.05931988454465 21.85304763527057 0 1 0
1773 0 1 0 5.678643850602669 79.81656057464504 21.766157763587483 0 1 0
1540 0 1 0 4.979795538269307 81.06225389114825 21.73459588525732 0 1 0
1536 0 1 0 4.986004237920816 78.60897598589588 21.839446306849457 0 1 0
1775 0 1 0 7.821923847434907 78.53766549735529 21.873272989696193 0 1 0
1780 0 1 0 9.244433757314354 81.03771344557619 21.91781896479119 0 1 0
1776 0 1 0 9.288853856591846 78.50541418858269 21.984286480412973 0 1 0
1304 0 1 0 0.6521387199900133 83.59293175258351 21.95911303669194 0 1 0
1543 0 1 0 3.5464346108561595 83.5655673255734 21.80374832238776 0 1 0
1538 0 1 0 2.8187714684010508 82.31624103439547 21.83481503487129 0 1 0
1537 0 1 0 1.346347209173635 82.3637810807181 21.9540742592992 0 1 0
1308 0 1 0 0.6972494883877242 86.09320440644818 21.879760058559132 0 1 0
1542 0 1 0 2.898889794990066 84.84005964199227 21.761679844229604 0 1 0
1541 0 1 0 1.4392124222620764 84.87171219330787 21.91149305219394 0 1 0
1547 0 1 0 3.576325020988329 86.11158069852962 21.678442952300756 0 1 0
1783 0 1 0 7.937540631400604 83.52367275253643 21.96500207089857 0 1 0
1544 0 1 0 4.963369136037788 83.58372712718385 21.724275427807058 0 1 0
1778 0 1 0 7.132920825547939 82.29971404591818 21.782208208077808 0 1 0
1777 0 1 0 5.713314889312349 82.31194721967483 21.704529392151795 0 1 0
1548 0 1 0 5.02520438442979 86.04678904991619 21.800569780566633 0 1 0
1787 0 1 0 7.897111818091315 86.03153717819428 21.895898795892265 0 1 0
1781 0 1 0 5.773443698983371 84.81471231190353 21.729014977898537 0 1 0
1782 0 1 0 7.203260633235441 84.75912831078837 21.94315956283916 0 1 0
1788 0 1 0 9.40283515860513 86.08106945902568 21.905139262484365 0 1 0
1784 0 1 0 9.36240666045668 83.55101905354806 21.960343786248874 0 1 0
1312 0 1 0 0.658004307283638 88.58368724230567 21.6594038965073 0 1 0
1545 0 1 0 1.3954457058749097 87.35706146965165 21.743329384479754 0 1 0
1546 0 1 0 2.8551639205692556 87.38290856993389 21.693238083276558 0 1 0
1551 0 1 0 3.540233825616207 88.62528319600918 21.77717331660683 0 1 0
1549 0 1 0 1.3974371505139176 89.85252514572723 21.649642809227302 0 1 0
1550 0 1 0 2.795878340460085 89.85593182781079 21.771917034272995 0 1 0
1316 0 1 0 0.6492045966511671 91.07963115741343 21.747842014995122 0 1 0
1555 0 1 0 3.4731774142134717 91.09457753054816 21.72807355258854 0 1 0
1552 0 1 0 4.944185184171935 88.55258831843798 21.783772869958877 0 1 0
1791 0 1 0 7.905788160292919 88.5928512562026 21.8802136022402 0 1 0
1786 0 1 0 7.192782623490141 87.30826066927092 21.8704282935842 0 1 0
1785 0 1 0 5.732576535796147 87.31129142105132 21.867812031156483 0 1 0
1790 0 1 0 7.114063451806056 89.84727356498773 21.83236396032693 0 1 0
1789 0 1 0 5.651174513889489 89.81393261685967 21.771371206149816 0 1 0
1556 0 1 0 4.955343756814708 91.07189352893172 21.690092021108605 0 1 0
1795 0 1 0 7.8556643159491415 91.1029915376348 21.817871796233028 0 1 0
1796 0 1 0 9.306684241274954 91.10026279436454 21.8868647028501 0 1 0
1792 0 1 0 9.33228481436086 88.61520877377045 21.878131401657143 0 1 0
1553 0 1 0 1.3310655174751727 92.37694145353824 21.711372931218342 0 1 0
1554 0 1 0 2.7768094070848126 92.36257042393994 21.726347362278542 0 1 0
1320 0 1 0 0.664096679747771 93.66542353913509 21.72319475733864 0 1 0
1559 0 1 0 3.501354039128418 93.64495157235129 21.682962628157377 0 1 0
1769 0 1 0 5.687420563658603 77.37247353329207 21.983631375074186 0 1 0
1530 0 1 0 2.756976098617469 77.31056885801148 21.957459209155978 0 1 0
1770 0 1 0 7.124089998027633 77.28691660401697 22.00029577801033 0 1 0
1800 0 1 0 9.332817479987606 93.56966048481893 21.630615314109043 0 1 0
1793 0 1 0 5.673304911775016 92.34862908533529 21.61126952757236 0 1 0
1794 0 1 0 7.096877839187015 92.40949021281494 21.768212954734572 0 1 0
1560 0 1 0 4.995971179938439 93.62923417312138 21.62893094256566 0 1 0
1799 0 1 0 7.846296073450603 93.65326254303264 21.628678543218637 0 1 0
1529 0 1 0 1.2828166046093499 77.32110926065339 21.956047785711238 0 1 0
1531 0 1 0 3.4617294549981317 76.09183766146293 22.064242018710218 0 1 0
1532 0 1 0 4.896068223681637 76.14172892275444 22.10978516343665 0 1 0
1772 0 1 0 9.254830571643211 76.03651029145338 21.96613289294796 0 1 0
1771 0 1 0 7.858204730285771 76.03168894052895 22.02276886879543 0 1 0
1292 0 1 0 0.585568609492745 76.03464716291806 21.933181728131025 0 1 0
1566 0 1 0 2.804571187911591 99.87222065060061 21.53413941937266 0 1 0
1565 0 1 0 1.3735260270131906 99.89767000064819 21.53040436034516 0 1 0
1567 0 1 0 3.533689840732191 98.68163890504081 21.505856731199202 0 1 0
1328 0 1 0 0.6556757366998727 98.67344048329109 21.48957841652002 0 1 0
1562 0 1 0 2.823070708907523 97.3560960279857 21.598526156838133 0 1 0
1561 0 1 0 1.4094524740124996 97.36351161795655 21.54827785052892 0 1 0
1805 0 1 0 5.728306144164124 99.92046583773765 21.45283079651949 0 1 0
1806 0 1 0 7.158872398176496 99.8790228160774 21.536928927226068 0 1 0
1568 0 1 0 4.9625523134828065 98.62512249683623 21.44487855398593 0 1 0
1807 0 1 0 7.872741324360531 98.60390931420724 21.555807216967263 0 1 0
1801 0 1 0 5.725251627859895 97.35603182930045 21.48265466813606 0 1 0
1802 0 1 0 7.162083331015057 97.36362815680745 21.584140570964014 0 1 0
1808 0 1 0 9.348539144011031 98.63083295546856 21.649400872639138 0 1 0
1571 0 1 0 3.4992708363658163 101.15242367444871 21.52435408626208 0 1 0
1570 0 1 0 2.828090464359446 102.40136294007381 21.471935156769714 0 1 0
1569 0 1 0 1.395938814589226 102.42517684727686 21.515216796627694 0 1 0
1332 0 1 0 0.6383150553914629 101.18588826355953 21.5307456033694 0 1 0
1574 0 1 0 2.838479091510816 104.88879206314361 21.533035658376853 0 1 0
1573 0 1 0 1.3837496075205593 104.914088014421 21.462645782138686 0 1 0
1336 0 1 0 0.69391552770221 103.66662508076554 21.451347722962755 0 1 0
1575 0 1 0 3.5480950866428453 103.67538264248216 21.489927742745827 0 1 0
1810 0 1 0 7.152256972847137 102.33525933792815 21.46678772219268 0 1 0
1809 0 1 0 5.711927705961532 102.41567771775266 21.414317788771484 0 1 0
1572 0 1 0 4.972813567186693 101.09326104767449 21.47290608449479 0 1 0
1811 0 1 0 7.868902292279854 101.14537721831636 21.535605615305304 0 1 0
1813 0 1 0 5.706393182340616 104.89975482330406 21.48031893336454 0 1 0
1576 0 1 0 5.009008558245881 103.64789349312844 21.47890033466559 0 1 0
1814 0 1 0 7.123655086669814 104.85577624042942 21.443447296008273 0 1 0
1815 0 1 0 7.862744953742379 103.57868931796436 21.415919524416296 0 1 0
1812 0 1 0 9.32186112387283 101.18011820477402 21.63304958221535 0 1 0
1816 0 1 0 9.313088105093787 103.64218116509734 21.489084960496374 0 1 0
1340 0 1 0 0.7223891971912929 106.14706330763184 21.517214902309714 0 1 0
1578 0 1 0 2.8896032687835276 107.4345466040324 21.706320265036645 0 1 0
1577 0 1 0 1.4349173240615862 107.3872994223736 21.628449350787726 0 1 0
1579 0 1 0 3.575176694359066 106.13142291639973 21.620372474738705 0 1 0
1581 0 1 0 1.416437620294856 109.91950195368835 21.824238608330234 0 1 0
1344 0 1 0 0.744719457292733 108.61003125468339 21.67416423419623 0 1 0
1583 0 1 0 3.5624848296199305 108.67542512139033 21.8121122865726 0 1 0
1582 0 1 0 2.8679482207102067 109.957536437167 21.936484107437856 0 1 0
1580 0 1 0 5.008053015310138 106.09233119684254 21.65727529458767 0 1 0
1819 0 1 0 7.8547784660025535 106.14247606973517 21.452563242529934 0 1 0
1818 0 1 0 7.142153648371237 107.38267640269477 21.628670628706093 0 1 0
1817 0 1 0 5.689685030861622 107.37715177940848 21.766412876354405 0 1 0
1822 0 1 0 7.19737361005542 109.84312021113443 21.653142291539563 0 1 0
1821 0 1 0 5.769649370994684 109.89076154936552 21.891383829794965 0 1 0
1584 0 1 0 4.999560336865958 108.66643030977585 21.870349894078963 0 1 0
1823 0 1 0 7.898682077338359 108.61073627985097 21.626814769926536 0 1 0
1824 0 1 0 9.321081117939988 108.5737886695284 21.583673983368428 0 1 0
1820 0 1 0 9.324912799832491 106.13586751511374 21.430791116030242 0 1 0
1348 0 1 0 0.6677946949788146 111.15231647064316 21.778519545783002 0 1 0
1587 0 1 0 3.61690345368941 111.17533926991102 21.972716367098833 0 1 0
1585 0 1 0 1.387887723412643 112.34269529193199 21.726372705362433 0 1 0
1586 0 1 0 2.8283652774657178 112.3899683726236 21.799072079145834 0 1 0
1797 0 1 0 5.74730927818663 94.86568533033957 21.59029104978999 0 1 0
1798 0 1 0 7.203882456627112 94.90456360521715 21.53230362425416 0 1 0
1558 0 1 0 2.8511825695955406 94.88314461345061 21.610881744131856 0 1 0
1563 0 1 0 3.5708274659981263 96.12484715032852 21.513340898900985 0 1 0
1588 0 1 0 5.044565891675423 111.1162528177533 21.91695633232892 0 1 0
1827 0 1 0 7.918864792843828 111.06323947585122 21.5908171645096 0 1 0
1825 0 1 0 5.741662416515016 112.29852500541202 21.768991808935205 0 1 0
1826 0 1 0 7.180675396228831 112.3550542217625 21.60677649509771 0 1 0
1828 0 1 0 9.354597443217143 111.06799400048578 21.50752567329731 0 1 0
1564 0 1 0 5.010620317650471 96.0860273846715 21.51354000055039 0 1 0
1324 0 1 0 0.6953329802015962 96.1466664279815 21.541834478900615 0 1 0
1803 0 1 0 7.916662937874845 96.14699949169675 21.64769345192834 0 1 0
1804 0 1 0 9.331575438592775 96.13341087268792 21.716379793403018 0 1 0
1557 0 1 0 1.386552743779298 94.90371108066263 21.648619967647157 0 1 0
1360 0 1 0 0.6872095402989045 118.63512242031948 22.029528853586495 0 1 0
1599 0 1 0 3.5034953101045394 118.69196401813646 21.71786741112626 0 1 0
1594 0 1 0 2.8164127157678625 117.4302574329892 21.76450294640792 0 1 0
1593 0 1 0 1.4025349089387074 117.36055389692264 21.958997546760486 0 1 0
1356 0 1 0 0.6652004612675548 116.0963542464877 21.871631094798936 0 1 0
1595 0 1 0 3.5352093238780222 116.17420351317752 21.71925544762644 0 1 0