LAMMPS data file via write_data, version 4 Feb 2025, timestep = 50000, units = metal

21540 atoms
3 atom types

0 154.00799999999998 xlo xhi
0 148.2 ylo yhi
0 151.07609208607428 zlo zhi

Masses

1 12.01099999691024
2 1.007999999740698
3 15.99899999588435

Atoms # full

6 0 1 0 4.382538814015776 0.4156615930940348 18.13718544432681 0 0 0
7927 0 1 0 3.65531016116179 1.6775661859348392 18.22244349064472 1 0 0
7976 0 1 0 2.2037274459619707 1.684536792846545 18.140559231452798 1 0 0
8 0 1 0 4.384223129165636 2.818550737075821 18.445992419151562 0 0 0
7977 0 1 0 1.4367276243050289 2.8953874061607277 18.199744836165223 1 0 0
7929 0 1 0 3.7329265881837985 4.13028969176882 18.410252975099525 1 0 0
7978 0 1 0 2.2516515644302992 4.174049518934239 18.269571398960053 1 0 0
7975 0 1 0 1.5272064437490003 0.4609257017668261 17.95209373666686 1 0 0
7966 0 1 0 0.14339953110314554 0.42249268272434926 17.764783818075845 1 0 0
7968 0 1 0 0.0381407410829093 2.8934337993940704 18.033210238810835 1 0 0
29 0 1 0 7.999991688863358 4.093535936281031 18.729997451113928 0 0 0
28 0 1 0 8.705852230224083 2.822102748635525 18.716704516845628 0 0 0
18 0 1 0 6.578653644215923 4.102196066572168 18.710385683434094 0 0 0
17 0 1 0 5.82128711131625 2.8404200264898134 18.597925394770854 0 0 0
15 0 1 0 5.838132273356697 0.4035635197621474 18.334559084071046 0 0 0
16 0 1 0 6.567056078392129 1.610328350533474 18.522225971163106 0 0 0
27 0 1 0 8.000517364948573 1.6029295435912543 18.665921278660832 0 0 0
26 0 1 0 8.691878543950812 0.37928891476369514 18.695549662951098 0 0 0
7921 0 1 0 3.689260633325031 6.588685454496107 18.498978464890143 1 0 0
62 0 1 0 4.337196588001875 7.84268767735619 18.554045357887755 0 0 0
8031 0 1 0 1.4841883320178302 7.852432145234583 18.36688078333356 1 0 0
7980 0 1 0 2.198059132768401 6.577571364878058 18.407703281897604 1 0 0
7979 0 1 0 1.560229026049586 5.3361463476868325 18.279990883491042 1 0 0
10 0 1 0 4.421089173173386 5.342528711740515 18.62497977708064 0 0 0
7983 0 1 0 3.6589313873195377 9.06002902540562 18.446277053500303 1 0 0
8032 0 1 0 2.2063043856693207 9.057166382967528 18.3697565137635 1 0 0
7970 0 1 0 0.12384418562908187 5.334777488141777 18.01342330188063 1 0 0
8022 0 1 0 0.06800408112998758 7.896783344331524 18.22462592758745 1 0 0
19 0 1 0 5.857301073543253 5.343492634144775 18.74156071747616 0 0 0
20 0 1 0 6.555007620687073 6.578345074891092 18.741070147669472 0 0 0
21 0 1 0 8.053351621061456 6.580259442834609 18.698890399361385 0 0 0
30 0 1 0 8.745951332743564 5.321025852272289 18.734584121553443 0 0 0
82 0 1 0 8.65408341234314 7.8035992059693315 18.77212576178743 0 0 0
71 0 1 0 5.778592942368533 7.804841482121688 18.599747716158184 0 0 0
72 0 1 0 6.481976190211418 9.013241471813025 18.60061224642055 0 0 0
83 0 1 0 7.949003279155728 9.056076343823973 18.673027803248917 0 0 0
66 0 1 0 4.383908471829109 12.791079384116257 18.40543945025965 0 0 0
64 0 1 0 4.386535759390804 10.314696461752407 18.48101727946505 0 0 0
7985 0 1 0 3.619858847208698 11.566399989362763 18.463298551913592 1 0 0
8034 0 1 0 2.2439227307007235 11.556013764676408 18.414550511857477 1 0 0
8035 0 1 0 1.4626895911428686 12.763624823126813 18.416074783472844 1 0 0
8033 0 1 0 1.5496890836750896 10.306389910585036 18.336342655405332 1 0 0
8024 0 1 0 0.06750526360829792 10.31092718530808 18.28477498647012 1 0 0
8026 0 1 0 0.08084049247162264 12.758266671807334 18.42088261125858 1 0 0
75 0 1 0 5.810072587446934 12.773578158037795 18.379397461020638 0 0 0
86 0 1 0 8.650030822927746 12.798773591313424 18.532961243482216 0 0 0
73 0 1 0 5.803153413421972 10.308532071001158 18.502108281899094 0 0 0
74 0 1 0 6.5191919614514795 11.534443011765909 18.474493793069545 0 0 0
84 0 1 0 8.676244115552638 10.306973250009648 18.47262544161696 0 0 0
85 0 1 0 7.981462010016165 11.496922651875 18.51713771403633 0 0 0
70 0 1 0 4.380630675306228 17.75656771769147 18.29136197378478 0 0 0
68 0 1 0 4.313250929408667 15.243032844140135 18.276009713468525 0 0 0
7989 0 1 0 3.7291590495652622 16.487924999008996 18.277003981448892 1 0 0
8038 0 1 0 2.284105500431932 16.51523381145526 18.321767104945888 1 0 0
8039 0 1 0 1.5518638598857024 17.758589634931372 18.33122255477795 1 0 0
8036 0 1 0 2.2039261027749 14.007037623892993 18.392485259295544 1 0 0
7987 0 1 0 3.6152524175691068 13.983229236241181 18.294230608021785 1 0 0
8037 0 1 0 1.5821443602758705 15.26530417324405 18.278172808203003 1 0 0
8028 0 1 0 0.15456916090717407 15.229782052488815 18.340013298216096 1 0 0
8030 0 1 0 0.09612114117755387 17.73981188030922 18.444175419661903 1 0 0
90 0 1 0 8.658757475925757 17.729277033644387 18.58852641674051 0 0 0
89 0 1 0 7.945881610528257 16.488422898796866 18.66277426752819 0 0 0
78 0 1 0 6.488983454930604 16.542672509293336 18.573643084829467 0 0 0
88 0 1 0 8.615021814596176 15.25458875064305 18.488439701211863 0 0 0
87 0 1 0 7.968262412416869 14.007477404351246 18.491827731140674 0 0 0
76 0 1 0 6.4764124690599365 14.062538911709254 18.42409010842558 0 0 0
79 0 1 0 5.845239230842952 17.75900217931216 18.385481565739745 0 0 0
77 0 1 0 5.7450760571095705 15.264917480366382 18.34147895289599 0 0 0
124 0 1 0 4.3744638502153945 22.71657758131475 18.360849441644238 0 0 0
122 0 1 0 4.409397139635755 20.190564042597448 18.33301994354635 0 0 0
8043 0 1 0 3.6668665083157435 21.450386305433206 18.386890432688006 1 0 0
8092 0 1 0 2.2703703080925695 21.466493614654752 18.28332251035413 1 0 0
8093 0 1 0 1.5293743659019434 22.66782425546213 18.048308740037623 1 0 0
8091 0 1 0 1.5416886683852868 20.202342375498784 18.28542465284003 1 0 0
8040 0 1 0 2.295556344070083 18.97478947173882 18.302578992459722 1 0 0
7981 0 1 0 3.7144055709696744 18.96283742039418 18.254915927680617 1 0 0
8082 0 1 0 0.13620095334456708 20.251730863696082 18.258887902926187 1 0 0
8084 0 1 0 0.09733780540258889 22.679754486041357 17.99366140435313 1 0 0
142 0 1 0 8.678577648543445 20.247295254136706 18.47936645486277 0 0 0
144 0 1 0 8.704750238792077 22.720788196494578 18.399688866462284 0 0 0
132 0 1 0 6.5862101924056144 21.458792404773654 18.354125979526067 0 0 0
143 0 1 0 7.958804487001095 21.48269519581336 18.390496718081263 0 0 0
133 0 1 0 5.8245278690705184 22.668201811276834 18.311697366476864 0 0 0
80 0 1 0 6.562903104835693 19.01512925788886 18.413478373849333 0 0 0
81 0 1 0 7.996012854635399 19.003076565806992 18.44208385422181 0 0 0
131 0 1 0 5.858632993068754 20.216261600180495 18.383387654920007 0 0 0
126 0 1 0 4.390522528211395 25.16034157127697 17.89937303937659 0 0 0
8045 0 1 0 3.7183862829288046 23.938719463566226 18.104574062154004 1 0 0
8047 0 1 0 3.6886642092978623 26.39184620019758 17.82115664709724 1 0 0
128 0 1 0 4.413986538465124 27.62020816636335 17.70026970412496 0 0 0
8096 0 1 0 2.263192498693066 26.411199788885277 17.825375524255314 1 0 0
8094 0 1 0 2.270847904099628 23.935831872537673 17.939790631728133 1 0 0
8095 0 1 0 1.5657374381255735 25.182807098178042 17.853978878567556 1 0 0
8097 0 1 0 1.5587905282669163 27.63840342980164 17.65411978278827 1 0 0
8086 0 1 0 0.12396507765840696 25.161433847111194 17.861027244330703 1 0 0
8088 0 1 0 0.1393586238483134 27.563320760845563 17.605045570804737 1 0 0
148 0 1 0 8.690031504637016 27.610437512650897 17.832004895872036 0 0 0
134 0 1 0 6.536231644249596 23.87649873326881 18.257300434247497 0 0 0
135 0 1 0 5.779801945180348 25.117600961195457 18.023747186234974 0 0 0
145 0 1 0 7.9587202107305615 23.930785154334682 18.298053089514585 0 0 0
146 0 1 0 8.704428087221594 25.142986088842093 18.09668608931357 0 0 0
147 0 1 0 7.966088150555356 26.36465150113229 17.96093982840291 0 0 0
136 0 1 0 6.521934414363261 26.3029370928034 17.911988585802188 0 0 0
137 0 1 0 5.810212363004677 27.58260725742961 17.68858595566148 0 0 0
130 0 1 0 4.421021559942715 30.08875999664008 17.683586088895765 0 0 0
8049 0 1 0 3.7188107829374224 28.828967474930142 17.688573357427195 1 0 0
8041 0 1 0 3.662954754362745 31.299771313713755 17.460816594589325 1 0 0
8099 0 1 0 1.570703834698898 30.107860464353266 17.507114688628256 1 0 0
8100 0 1 0 2.2655197364246864 31.35041400545424 17.489875018255304 1 0 0
8098 0 1 0 2.280502245053018 28.818385846574323 17.540290005156873 1 0 0
8090 0 1 0 0.1220651275581764 30.094896906900438 17.50164722036113 1 0 0
150 0 1 0 8.688073428225398 30.133747464140338 17.58139383318575 0 0 0
138 0 1 0 6.551459597397356 28.808574245469117 17.67270148892843 0 0 0
139 0 1 0 5.802718081305055 30.097574975920928 17.624273534887536 0 0 0
149 0 1 0 7.983997786705381 28.88401813014509 17.706838910399256 0 0 0
140 0 1 0 6.50846987085397 31.364977697757297 17.609573878347433 0 0 0
141 0 1 0 7.915906808256059 31.35008175097916 17.63036943774251 0 0 0
8144 0 1 0 0.12026090635873128 34.99068005375311 17.463953803370647 1 0 0
184 0 1 0 4.353039656962313 34.98841292438429 17.316393690252305 0 0 0
8105 0 1 0 3.7045519053110265 36.22301271018813 17.39605814510049 1 0 0
8154 0 1 0 2.2646813232626695 36.219985649351855 17.26422378914949 1 0 0
8151 0 1 0 1.5277876454207588 32.594903226118575 17.422566481989634 1 0 0
8152 0 1 0 2.2172340241539423 33.813746589079244 17.411670956059314 1 0 0
182 0 1 0 4.3820885557723885 32.51923757098438 17.452676492594946 0 0 0
8103 0 1 0 3.6066477389891043 33.7640414547267 17.468871606923848 1 0 0
8153 0 1 0 1.5332477663131587 35.01921170429745 17.375168016743935 1 0 0
8142 0 1 0 0.10338303087003818 32.59603544872513 17.524544379308864 1 0 0
194 0 1 0 6.507402623653653 36.286537455144476 17.35401818411523 0 0 0
202 0 1 0 8.651812584375472 32.592096405010736 17.54756115703881 0 0 0
192 0 1 0 6.538189493737954 33.82175887110311 17.430584260735547 0 0 0
205 0 1 0 7.897351990861503 36.26794046373923 17.428042742325182 0 0 0
203 0 1 0 7.933311074534639 33.79838366371626 17.45426226198393 0 0 0
204 0 1 0 8.62264665397558 35.02559762451154 17.357586773195248 0 0 0
191 0 1 0 5.769045394141338 32.561251117987915 17.52771608292266 0 0 0
193 0 1 0 5.7587905452687265 35.01984605855649 17.377601687690937 0 0 0
8202 0 1 0 0.11249726843239093 44.79660888813489 16.636756279430987 1 0 0
8211 0 1 0 1.5510830064764554 44.84044432925379 16.733602683147215 1 0 0
8160 0 1 0 2.2707357688682857 43.62620813910632 16.7851913650055 1 0 0
8204 0 1 0 0.055965273235988856 47.313380839360384 16.56415282208005 1 0 0
244 0 1 0 4.3324347553784985 47.34854901427822 16.766878236981213 0 0 0
8165 0 1 0 3.625473523584961 48.58682704886508 16.71961865826198 1 0 0
246 0 1 0 4.354381795533687 49.81977032474814 16.653299411355803 0 0 0
8213 0 1 0 1.5276858477327941 47.38044596154981 16.64591228834475 1 0 0
8214 0 1 0 2.229847205880361 48.59867176565302 16.60177156697159 1 0 0
8215 0 1 0 1.489381997425834 49.82496734214225 16.46278408301554 1 0 0
8206 0 1 0 0.05909880623865506 49.773885460174505 16.434175604821977 1 0 0
254 0 1 0 6.488912083980764 48.59120520009459 16.758701805840335 0 0 0
255 0 1 0 5.756337531475092 49.81455411844123 16.627498977310154 0 0 0
8167 0 1 0 3.6433952846936606 51.09935431049008 16.613514541193304 1 0 0
248 0 1 0 4.3962511088400404 52.2854215370852 16.58047058990731 0 0 0
250 0 1 0 4.369517236476416 54.79173521256087 16.5595511250516 0 0 0
8217 0 1 0 1.5664584216442428 52.25894030640819 16.375036337227282 1 0 0
8169 0 1 0 3.6823253293183895 53.52563872457192 16.625998527357527 1 0 0
8216 0 1 0 2.239158627225831 51.02394679690602 16.497493186900066 1 0 0
8218 0 1 0 2.2618275816671733 53.513003816498276 16.572948194026484 1 0 0
8219 0 1 0 1.52102896625902 54.73486673177647 16.441032584241402 1 0 0
8208 0 1 0 0.11368013935894636 52.24667833947673 16.3545689669743 1 0 0
8210 0 1 0 0.09799062739663801 54.74040887443122 16.450244917644255 1 0 0
256 0 1 0 6.5360641544206235 51.033142787816274 16.655786606958337 0 0 0
267 0 1 0 7.961243097604551 51.01602363302698 16.6794822505793 0 0 0
269 0 1 0 7.879175641272636 53.51247302650316 16.69742853176269 0 0 0
270 0 1 0 8.64400681357382 54.72327113974841 16.666554160194554 0 0 0
268 0 1 0 8.639440477278152 52.28515886937367 16.632663413057337 0 0 0
258 0 1 0 6.487500000593563 53.57826729985301 16.634899627201253 0 0 0
257 0 1 0 5.819939164867871 52.31501826719075 16.55641925500736 0 0 0
259 0 1 0 5.821435466773908 54.81936654201456 16.562484011265656 0 0 0
188 0 1 0 4.398030127903684 39.9472302500653 17.12420044953826 0 0 0
186 0 1 0 4.380247183658319 37.43596975627938 17.2455701474583 0 0 0
8107 0 1 0 3.709124005256595 38.69883567037801 17.17182908157938 1 0 0
8156 0 1 0 2.2456448050015574 38.698029361091685 17.129768394911913 1 0 0
8155 0 1 0 1.5360442999769597 37.41894831709971 17.195770124317775 1 0 0
8157 0 1 0 1.4603835532504867 39.90240691306491 17.08357034084154 1 0 0
8158 0 1 0 2.2028309292443704 41.14569600206524 16.96828300643827 1 0 0
8109 0 1 0 3.6407659706290096 41.15062194240263 17.088989438179134 1 0 0
8146 0 1 0 0.11474172617663544 37.46085971761088 17.272557572746734 1 0 0
8148 0 1 0 0.04251709869055957 39.908122884500365 17.087570609658066 1 0 0
209 0 1 0 7.990328818945814 41.2016628828577 17.01869546588745 0 0 0
208 0 1 0 8.671642247953294 39.96246552302551 17.064120458117987 0 0 0
207 0 1 0 7.938739032460426 38.77190717276739 17.133964847690976 0 0 0
206 0 1 0 8.621494912717374 37.47520270953898 17.320492923827835 0 0 0
195 0 1 0 5.81986604500988 37.49163041833666 17.29404188744692 0 0 0
196 0 1 0 6.562006957165061 38.76160672590314 17.19636008319349 0 0 0
197 0 1 0 5.806629376839758 39.9654197008639 17.073912013253093 0 0 0
198 0 1 0 6.5313342076371175 41.17785136903592 17.122267288137504 0 0 0
190 0 1 0 4.359361872247542 42.358174257104515 17.17825561938359 0 0 0
8101 0 1 0 3.72426248306782 43.60269550736554 16.97472793882814 1 0 0
8159 0 1 0 1.5233455373410487 42.37212795640078 16.843093166244373 1 0 0
242 0 1 0 4.362507082165764 44.842336997056464 16.879370187411066 0 0 0
8163 0 1 0 3.623304770572664 46.08023400452532 16.8641073067904 1 0 0
8212 0 1 0 2.204072195361578 46.14826959326882 16.796720842418353 1 0 0
8150 0 1 0 0.07973807758494911 42.364413338453204 16.854318945409506 1 0 0
201 0 1 0 7.955073599468292 43.61960481892196 17.06923089973127 0 0 0
251 0 1 0 5.808674254149579 44.8584496307161 16.924567547363708 0 0 0
262 0 1 0 8.664802430164087 44.850093970805496 17.188207536351896 0 0 0
210 0 1 0 8.696994911589574 42.417816018155484 17.02775962425865 0 0 0
200 0 1 0 6.491576958707743 43.608714031020654 17.05651027658738 0 0 0
263 0 1 0 7.933700287356377 46.09092064167792 17.217489249355726 0 0 0
252 0 1 0 6.519370462753103 46.05091723499266 17.041745038066583 0 0 0
199 0 1 0 5.8076187652687254 42.400568057237514 17.191788692451816 0 0 0
253 0 1 0 5.798193813174219 47.28024460184235 16.811790345511202 0 0 0
264 0 1 0 8.66982572440403 47.28327647364778 17.10510114336557 0 0 0
265 0 1 0 7.932706090091831 48.54145250890577 16.815529597974926 0 0 0
266 0 1 0 8.672312345668793 49.78509432727714 16.81392723731512 0 0 0
8273 0 1 0 1.5565715494566532 59.72265926209545 16.46722433407838 1 0 0
304 0 1 0 4.386894150142682 59.772286740320226 16.56171349954154 0 0 0
8223 0 1 0 3.629471777780756 58.48823512223633 16.406547093035783 1 0 0
302 0 1 0 4.3603660088073815 57.25317860980359 16.314164878130338 0 0 0
8272 0 1 0 2.209778253544764 58.48259021669316 16.50739344533753 1 0 0
8271 0 1 0 1.5207079273229573 57.24526169278733 16.527412036536088 1 0 0
8161 0 1 0 3.644395793469021 55.993146170775304 16.48176689710014 1 0 0
8220 0 1 0 2.2330569402904388 55.99148446821991 16.508824459497234 1 0 0
8262 0 1 0 0.04951527497498938 57.2061364492276 16.463491288134254 1 0 0
8264 0 1 0 0.09130991197967313 59.708926098402294 16.478376529212518 1 0 0
322 0 1 0 8.632826517189836 57.25172644517861 16.550753405980213 0 0 0
324 0 1 0 8.611381396164829 59.76060725223792 16.60765226333765 0 0 0
323 0 1 0 7.944030996918741 58.483056021912226 16.56361060150599 0 0 0
312 0 1 0 6.494959657403963 58.49249952538804 16.465597573589505 0 0 0
313 0 1 0 5.831490764817554 59.69746099360869 16.535939850989468 0 0 0
261 0 1 0 7.937170291436766 55.99620707330292 16.568889943405242 0 0 0
311 0 1 0 5.779364262495972 57.24799659941346 16.50012419024844 0 0 0
260 0 1 0 6.518816619220246 56.005792451353244 16.573831482463593 0 0 0
8274 0 1 0 2.2838840820438584 60.9982633804242 16.611143753285134 1 0 0
306 0 1 0 4.3594560078332325 62.23191580077738 16.649345443550335 0 0 0
8225 0 1 0 3.688117082337715 61.00436048080543 16.579206307669093 1 0 0
8275 0 1 0 1.5223302794526137 62.21545295016885 16.681870551625195 1 0 0
8276 0 1 0 2.180921824014146 63.45571419451859 16.77324202367354 1 0 0
8266 0 1 0 0.09660180772502654 62.17994797605251 16.693168365029518 1 0 0
326 0 1 0 8.646117290593331 62.166853306056296 16.54545508732281 0 0 0
325 0 1 0 7.922119025482544 60.96912514901069 16.56512187465673 0 0 0
315 0 1 0 5.82461171730311 62.17957509256854 16.538001999098682 0 0 0
316 0 1 0 6.5056453597932515 63.45328543692034 16.511670012329027 0 0 0
327 0 1 0 7.972170782446513 63.41317466345785 16.534221267546663 0 0 0
314 0 1 0 6.519630817524929 60.930736703722324 16.566208199463134 0 0 0
317 0 1 0 5.820716711762338 64.62603176287197 16.707226250529477 0 0 0
328 0 1 0 8.591451849024658 64.67825875876858 16.52103525203144 0 0 0
318 0 1 0 6.540521869058738 65.92018681780246 16.74729588187155 0 0 0
329 0 1 0 7.921758586937195 65.91448216889549 16.64756639431015 0 0 0
8277 0 1 0 1.4906627904640033 64.73181669346643 16.891400768387822 1 0 0
8227 0 1 0 3.634220845450988 63.43250301278035 16.79580417781359 1 0 0
308 0 1 0 4.360638846294437 64.6708235864747 16.915288470159926 0 0 0
8268 0 1 0 0.06719832006575205 64.68597869456273 16.90906982711459 1 0 0
8278 0 1 0 2.194348840779788 65.94204903253902 16.98576246616451 1 0 0
8279 0 1 0 1.4874076115067134 67.1762962860851 16.93668703907202 1 0 0
8221 0 1 0 3.6703084528755716 68.38883233425672 16.841755854644898 1 0 0
8280 0 1 0 2.2526781663434785 68.34472208200752 16.93324028091581 1 0 0
8229 0 1 0 3.6434466345316134 65.91829563586246 16.993845439884286 1 0 0
310 0 1 0 4.388222431163909 67.13522495012805 16.871734285841413 0 0 0
8270 0 1 0 0.025079813602809028 67.1476079895024 17.058120407657217 1 0 0
330 0 1 0 8.675671177347931 67.12504757959834 16.84567723256484 0 0 0
320 0 1 0 6.482537643633727 68.35762176892591 16.986338645434177 0 0 0
319 0 1 0 5.7887536565747935 67.1333361643602 16.7979679905335 0 0 0
321 0 1 0 7.92756277950358 68.31390592257495 17.022509390641645 0 0 0
8285 0 1 0 3.632097467929411 73.30138776290664 17.188494052051638 1 0 0
8334 0 1 0 2.163694807971741 73.26838926585724 17.157900434109198 1 0 0
362 0 1 0 4.4294757124047885 69.63650102462495 16.924430738434648 0 0 0
8331 0 1 0 1.4920630856845578 69.59469887143837 16.978878438272577 1 0 0
8283 0 1 0 3.6555466155575442 70.85706720518291 16.934860707598364 1 0 0
8332 0 1 0 2.217788012008153 70.83360843768823 16.964568281344395 1 0 0
8333 0 1 0 1.475655813527016 72.03209277484352 17.176453305480813 1 0 0
364 0 1 0 4.350230226699325 72.10336228372927 17.138536116332997 0 0 0
8324 0 1 0 0.07307909396035647 72.04055386704152 17.311508294477825 1 0 0
8322 0 1 0 0.03869434547115312 69.6252885537566 17.189761710064214 1 0 0
385 0 1 0 7.948441679570069 73.25040918144848 17.30954518423475 0 0 0
374 0 1 0 6.5217148356269 73.27246577891613 17.253292687756 0 0 0
384 0 1 0 8.686676569013885 72.00906437394012 17.232286286620983 0 0 0
371 0 1 0 5.8212026170334035 69.58363424537347 17.13996368360548 0 0 0
373 0 1 0 5.8100443618301885 72.1046338435399 17.21474457845114 0 0 0
372 0 1 0 6.522981837968071 70.8239127997798 17.29697610957355 0 0 0
382 0 1 0 8.64278345249206 69.50664051974043 17.120076579230407 0 0 0
383 0 1 0 7.92237405564597 70.76824992254191 17.204326825588897 0 0 0
8391 0 1 0 1.53923510866136 81.98425272341753 16.751575379702796 1 0 0
8343 0 1 0 3.7394507533175485 83.1565555955877 16.617287862078523 1 0 0
8392 0 1 0 2.258017537797634 83.20493192474149 16.57943589069589 1 0 0
8382 0 1 0 0.11400449203950538 81.91254352828679 16.584586438279114 1 0 0
431 0 1 0 5.820297518020525 81.86829247151728 16.780905436004183 0 0 0
432 0 1 0 6.570493317405339 83.13138089899353 16.597142474637444 0 0 0
443 0 1 0 7.9748715969522035 83.14660208172472 16.71536774413439 0 0 0
424 0 1 0 4.451069702030683 84.3673629456835 16.391485263243748 0 0 0
8345 0 1 0 3.7777826416656213 85.69079870079068 16.2373269415216 1 0 0
8393 0 1 0 1.5583197948903986 84.39064743381806 16.220233166262172 1 0 0
8394 0 1 0 2.3036990683944594 85.6352961221043 16.178668817121878 1 0 0
426 0 1 0 4.428107947723102 86.89350441735871 16.25894472849663 0 0 0
8395 0 1 0 1.4924040111057866 86.89294975583879 16.191504631067193 1 0 0
8384 0 1 0 0.14520396654830314 84.34018342229415 16.15739573523681 1 0 0
8386 0 1 0 0.1114990304570935 86.87742930661788 16.12029753731629 1 0 0
435 0 1 0 5.86951473603317 86.85621750541429 16.34729366085301 0 0 0
444 0 1 0 8.675808639894374 84.3435083375211 16.596396777337258 0 0 0
433 0 1 0 5.854079876355574 84.35092106282686 16.405613994780403 0 0 0
445 0 1 0 7.921794839755082 85.60036742848054 16.556255715202646 0 0 0
434 0 1 0 6.53300958937478 85.59987617183818 16.458804022201676 0 0 0
446 0 1 0 8.691857018670278 86.81142682421942 16.442772992584377 0 0 0
8349 0 1 0 3.691033634085783 90.58125829538389 16.352491848751026 1 0 0
430 0 1 0 4.454547690532607 91.85082888301464 16.42832071535495 0 0 0
8396 0 1 0 2.247167808532191 88.13702545449871 16.30028639386048 1 0 0
428 0 1 0 4.404795906092073 89.34122310870883 16.305720028355335 0 0 0
8399 0 1 0 1.516854446888913 91.82202031346101 16.316777783506655 1 0 0
8347 0 1 0 3.684899181393674 88.128379035356 16.245779967717063 1 0 0
8397 0 1 0 1.4946571938232747 89.33987613663702 16.272168884270105 1 0 0
8398 0 1 0 2.252772226609764 90.58411036118824 16.246977686012034 1 0 0
8390 0 1 0 0.10244781476091848 91.81315290624894 16.26015601172058 1 0 0
8388 0 1 0 0.04488142846490519 89.3508002422892 16.18533479244864 1 0 0
437 0 1 0 5.837177365600083 89.3473854913554 16.31292955991271 0 0 0
449 0 1 0 7.963913891010236 90.53967397805906 16.620628543261223 0 0 0
448 0 1 0 8.731089115237477 89.30235839336468 16.607335296354176 0 0 0
450 0 1 0 8.693780041061514 91.7823830833664 16.59057756507872 0 0 0
447 0 1 0 7.965284073818603 88.09281473352418 16.431695372376463 0 0 0
436 0 1 0 6.556789732227047 88.11842678682734 16.38622061160854 0 0 0
439 0 1 0 5.863388444883379 91.79988468569702 16.546759301184366 0 0 0
438 0 1 0 6.569432034347006 90.54537344629023 16.508310922706478 0 0 0
368 0 1 0 4.374455313505733 77.00026262297315 17.196792577258208 0 0 0
8289 0 1 0 3.653120445882891 78.2065752019993 17.22067448271676 1 0 0
8338 0 1 0 2.25762664585812 78.25000146444506 17.188190581191478 1 0 0
8335 0 1 0 1.4797323476382382 74.51900756402344 17.22485992264485 1 0 0
8336 0 1 0 2.231581382581387 75.7417054378782 17.25283059323267 1 0 0
366 0 1 0 4.334479565177292 74.51403629598767 17.148107054659103 0 0 0
8287 0 1 0 3.635327062521557 75.77991059852783 17.233831048557267 1 0 0
8337 0 1 0 1.5433823663710913 77.02139696756889 17.204746460823376 1 0 0
8328 0 1 0 0.06491415831362271 76.95956897844218 17.134372026487114 1 0 0
8326 0 1 0 0.037831688521998856 74.50885971342558 17.22725900463307 1 0 0
388 0 1 0 8.650845614754676 76.92756149332824 17.32743899455683 0 0 0
378 0 1 0 6.5266054997368 78.19669345723469 17.181030233068185 0 0 0
389 0 1 0 7.992263528775209 78.14513170347252 17.209606281353334 0 0 0
377 0 1 0 5.813729337114672 76.99646213198265 17.19110036647619 0 0 0
375 0 1 0 5.742805633372406 74.49641517802092 17.233286336765065 0 0 0
386 0 1 0 8.65813504913829 74.47977873480768 17.34691387299181 0 0 0
376 0 1 0 6.540674119163083 75.72837937565336 17.33094358231083 0 0 0
387 0 1 0 7.9504712572581235 75.706184921317 17.35116531290856 0 0 0
8339 0 1 0 1.537956930441778 79.45661227830917 16.99250107648604 1 0 0
8340 0 1 0 2.243796904164874 80.75194417356347 17.027083462116078 1 0 0
370 0 1 0 4.412769223244309 79.50385976213231 17.146476439982543 0 0 0
8281 0 1 0 3.6911508476852846 80.72628683983818 16.989198342381897 1 0 0
422 0 1 0 4.413393444389915 81.94588724558558 16.83434775654341 0 0 0
8330 0 1 0 0.06269263763642469 79.46218465565865 16.947057018624896 1 0 0
379 0 1 0 5.843149845821504 79.45480640308259 17.18098991627645 0 0 0
380 0 1 0 6.5605476012757045 80.69856617846115 17.06210530662036 0 0 0
381 0 1 0 7.9889636846799785 80.70299301953385 16.984513151637888 0 0 0
390 0 1 0 8.672428467984528 79.41661449828345 17.194530811461135 0 0 0
442 0 1 0 8.682023739954738 81.95364954673539 16.896522798587434 0 0 0
8341 0 1 0 3.6996308685119326 93.07396396659215 16.396058066996 1 0 0
482 0 1 0 4.41266646183763 94.27016790692741 16.479222020016543 0 0 0
8400 0 1 0 2.2541192204687817 93.06334849715984 16.315485264265956 1 0 0
8451 0 1 0 1.5846882299784026 94.27975962259374 16.3924701845118 1 0 0
8403 0 1 0 3.663068687943281 95.47434025348903 16.374878685540704 1 0 0
8452 0 1 0 2.2537332788548596 95.5009983907431 16.394504918317043 1 0 0
484 0 1 0 4.337188478506078 96.75466478688958 16.457594214681258 0 0 0
8453 0 1 0 1.5867136115824765 96.72740971021018 16.577409650921723 1 0 0
8444 0 1 0 0.12299535593462027 96.76041493712174 16.701433990529843 1 0 0
8442 0 1 0 0.15160653931732498 94.32302695945607 16.34240383504477 1 0 0
491 0 1 0 5.868862204936972 94.23458821309748 16.50336254958193 0 0 0
493 0 1 0 5.80774839490387 96.6990025741346 16.449156322308653 0 0 0
504 0 1 0 8.751158812788036 96.74693860731506 16.435682732530026 0 0 0
441 0 1 0 8.01483129492886 93.00587601064576 16.560390390331463 0 0 0
502 0 1 0 8.74410528268627 94.24534583760904 16.564845326236696 0 0 0
492 0 1 0 6.574415234206649 95.47887877114898 16.471803820731704 0 0 0
440 0 1 0 6.583667950416661 93.01289374490386 16.59281776955052 0 0 0
503 0 1 0 8.034169854493918 95.49453506578664 16.460335691761163 0 0 0
486 0 1 0 4.395727770575848 99.1941715610831 16.633470466785713 0 0 0
8405 0 1 0 3.676967956361655 97.98305920937324 16.522520499478148 1 0 0
8454 0 1 0 2.2573645144827346 97.96206033598921 16.662535020050814 1 0 0
495 0 1 0 5.835149439578799 99.18071406135152 16.611136791835307 0 0 0
494 0 1 0 6.571755801475732 97.90048578014249 16.53932683146786 0 0 0
505 0 1 0 7.9942211318455 97.95726687667538 16.542676843620335 0 0 0
506 0 1 0 8.697122754163146 99.2031383529486 16.591811727897312 0 0 0
507 0 1 0 7.956206459101705 100.42981590547319 16.690218556961838 0 0 0
496 0 1 0 6.536135233250613 100.38878137218926 16.70033447216818 0 0 0
8455 0 1 0 1.5782985290140574 99.15693205190392 16.938706748392345 1 0 0
8456 0 1 0 2.2125462672280043 100.4387646714325 16.842952852411006 1 0 0
8407 0 1 0 3.713105392637245 100.43455323851093 16.815060428647808 1 0 0
8457 0 1 0 1.4967414936405765 101.65963334787935 16.947656743620122 1 0 0
488 0 1 0 4.436655438224413 101.65051094634335 16.830165970265234 0 0 0
8446 0 1 0 0.17223481186985226 99.16664140042164 16.950198295295387 1 0 0
8448 0 1 0 0.08070848645567127 101.64390380362475 16.981091925096795 1 0 0
508 0 1 0 8.675443565421364 101.66443027377838 16.879527042769197 0 0 0
497 0 1 0 5.864984753691801 101.61290463787141 16.877446272625264 0 0 0
8409 0 1 0 3.6904058035044716 102.83457085427524 17.04993837624126 1 0 0
490 0 1 0 4.416402734098499 104.03257133770464 17.152800761308463 0 0 0
8458 0 1 0 2.279878512102109 102.87805787456648 16.980281499573834 1 0 0
8459 0 1 0 1.5549337480851197 104.11483248688053 17.15844481184242 1 0 0
8460 0 1 0 2.2957113008302796 105.33440243003177 17.318181368363692 1 0 0
8401 0 1 0 3.7212449051177097 105.29173009059592 17.281892882995567 1 0 0
8450 0 1 0 0.07588626326824534 104.1059449647661 17.089259023170094 1 0 0
551 0 1 0 5.852527421847271 106.50880368483944 17.18841386167058 0 0 0
509 0 1 0 8.026867367298399 102.894635317351 16.88742935490414 0 0 0
510 0 1 0 8.729343189490265 104.11376087873208 17.017211677452444 0 0 0
498 0 1 0 6.599905967954503 102.87488576546815 16.891265628687318 0 0 0
499 0 1 0 5.852921962754264 104.05213941235603 17.05761566098081 0 0 0
500 0 1 0 6.541831493104201 105.31120391447861 17.025087021818447 0 0 0
501 0 1 0 8.012402214007976 105.35908607755462 17.056046377558324 0 0 0
8513 0 1 0 1.5491596847233906 109.00026582245988 17.374953257986707 1 0 0
8465 0 1 0 3.7158664986101972 110.17887813073581 17.55259502894772 1 0 0
542 0 1 0 4.450090689622089 106.52723161830322 17.27863745046565 0 0 0
8512 0 1 0 2.263316283311235 107.756246812757 17.35980908473419 1 0 0
8463 0 1 0 3.722263429169134 107.72451765407597 17.395085915177184 1 0 0
8514 0 1 0 2.235993988205027 110.20213583799183 17.470227224771094 1 0 0
8511 0 1 0 1.5821000164435406 106.56073036166767 17.336780091385034 1 0 0
544 0 1 0 4.435957551792371 108.94955983626991 17.368891011545944 0 0 0
8502 0 1 0 0.1365463115791761 106.52190450707776 17.302567599193544 1 0 0
8504 0 1 0 0.09622195204187886 108.95259773180275 17.492734884805383 1 0 0
565 0 1 0 8.020684004706233 110.23963086104048 17.316905839289117 0 0 0
564 0 1 0 8.771494699883684 109.06880200498551 17.367440831994017 0 0 0
563 0 1 0 8.030997652143316 107.83050078796522 17.248512849802605 0 0 0
554 0 1 0 6.572577195566558 110.2039828761553 17.32413204979832 0 0 0
552 0 1 0 6.5863244517592285 107.741701151895 17.177575082308095 0 0 0
553 0 1 0 5.877334715874392 108.95100584383366 17.398206194201506 0 0 0
562 0 1 0 8.733388239905459 106.58253130349198 17.274668462408776 0 0 0
548 0 1 0 4.3869588902514 113.92794768393608 17.29418801957718 0 0 0
8467 0 1 0 3.714044696296177 112.66943929772633 17.378169493787425 1 0 0
8516 0 1 0 2.2701950731135403 112.71588953259526 17.358936277293985 1 0 0
8515 0 1 0 1.5436290397901344 111.42549367178731 17.328381569188323 1 0 0
8517 0 1 0 1.5816502261020082 113.95783034259196 17.372656730136566 1 0 0
8518 0 1 0 2.260062311552037 115.20484654241928 17.228802508238378 1 0 0
8469 0 1 0 3.6896239814725202 115.17556661103296 17.203068762615327 1 0 0
546 0 1 0 4.39913717008221 111.42768904027272 17.487428226634375 0 0 0
8508 0 1 0 0.13343373058833383 114.01657250222193 17.35852561649807 1 0 0
8506 0 1 0 0.14692710827041552 111.49392267743774 17.33709064806813 1 0 0