(written by ASE)

21540 atoms
3 atom types

0.0      154.00799999999998  xlo xhi
0.0      148.19999999999999  ylo yhi
0.0      151.07609208607428  zlo zhi

Masses

     1      12.010999996910238 # C
     2      1.0079999997406979 # H
     3      15.998999995884349 # O

Atoms # full

     1   0   1   0.0      16.264865636390027      8.4333521298936471      15.510234232002732
     2   0   1   0.0      4.1538600430332489     -2.7276138560075336      16.289726081658898
     3   0   1   0.0      16.236996760035481     -1.4858043239424321      15.504166802374485
     4   0   1   0.0      4.1077910715841979    -0.26462509965109138      16.174713357715785
     5   0   1   0.0      16.300323728866079     0.99478541523245789      15.342217602448709
     6   0   1   0.0      4.1575730266056929      2.2344976426812058      15.828762484823223
     7   0   1   0.0      16.289518937218041      3.4734644610054097      15.545333354678252
     8   0   1   0.0      4.0996639990315709       4.704863896431239      15.587690326497452
     9   0   1   0.0      16.251976784728058      5.9425579423702475      15.502006324380922
    10   0   1   0.0      4.1326423978382696       7.159770448556916      15.599399175720066
    11   0   1   0.0      5.5640913951289255      -2.755989622912923      16.069968902799733
    12   0   1   0.0      6.2839659525131193     -1.5078864393430236      15.926649239771786
    13   0   1   0.0      5.5562802936342637    -0.27652515131060323      15.991367996088483
    14   0   1   0.0      6.2798023957596936     0.92841823650053301      15.863609971836603
    15   0   1   0.0      5.5650330290359591      2.1908523242964875      15.785573128151418
    16   0   1   0.0      6.2626190106267243      3.4294599749272447      15.656764421273085
    17   0   1   0.0      5.5256281847610769       4.681524130633858      15.523046785499419
    18   0   1   0.0      6.2432117943497989      5.9146639487412802       15.50977231732803
    19   0   1   0.0      5.5409514175103025        7.14572691162748      15.533575469720699
    20   0   1   0.0      6.2240169658299047      8.3765950768141089      15.508785020624606
    21   0   1   0.0        7.66303605990388      8.4022430391264304      15.491889851437112
    22   0   1   0.0      8.3790411722033973     -2.7262790515465043      15.682567023188238
    23   0   1   0.0      7.6772261312416541     -1.4661316237141793      15.732941416537185
    24   0   1   0.0      8.3355836048387193    -0.22383997708613332       15.57092994362862
    25   0   1   0.0      7.6929202850581797     0.99446893115892254      15.720730118131474
    26   0   1   0.0      8.3881362338736825      2.2269769535837725      15.637438697754101
    27   0   1   0.0      7.6924746748873885      3.4421833027741053      15.650925253002431
    28   0   1   0.0       8.413558549203465      4.6843903269618075      15.607517894881088
    29   0   1   0.0      7.6916180567506789       5.917106806761387      15.512673457693012
    30   0   1   0.0       8.381498428742379      7.1668910784904689      15.446108028482133
    31   0   1   0.0       9.837493954170327     -2.7015183444015465      15.629658003659376
    32   0   1   0.0      10.553418097342879     -1.4329793909350348      15.514171503193614
    33   0   1   0.0      9.7598112495694203    -0.21708405552567261      15.411768933597401
    34   0   1   0.0      10.556473864127392      1.0019606547512621      15.365655266007614
    35   0   1   0.0      9.8587806375134672      2.2765479602694909      15.526024628636744
    36   0   1   0.0      10.546127526132342      3.4917665817098484      15.583284170358546
    37   0   1   0.0      9.8249153845209207      4.7064715376959798      15.564056675901231
    38   0   1   0.0      10.496199710715914      5.9656487040953357      15.542253277008662
    39   0   1   0.0       9.795634415280956      7.1800043562742903      15.503603852370913
    40   0   1   0.0      10.541847067289725      8.3909707832018317      15.628014586830965
    41   0   1   0.0      11.971305602396164      8.3799689291012776      15.646500412320288
    42   0   1   0.0      12.711350626602494     -2.7092835097916237      15.603552109637148
    43   0   1   0.0      11.978204616048899     -1.4311052692766613      15.503869086278057
    44   0   1   0.0      12.701609835837827     -0.2547784008274887      15.358680953178427
    45   0   1   0.0      11.985001081638064     0.97273305646670793      15.398365206109487
    46   0   1   0.0       12.70952151688258      2.2195225274978729      15.462965553521618
    47   0   1   0.0      11.994309019746019      3.4907380640511656      15.478629151073092
    48   0   1   0.0      12.683088334132036      4.6907240100704115       15.56573744017617
    49   0   1   0.0      11.909422091710367      5.9722348299214456      15.567305386180111
    50   0   1   0.0      12.672713170596493      7.1656517262204469      15.605434795611298
    51   0   1   0.0      14.117882595548085     -2.7238122091198202      15.678385504763797
    52   0   1   0.0       14.81833803510661     -1.4439861829988825      15.529697040701469
    53   0   1   0.0       14.14563110087103     -0.2236653343211446      15.391170103024017
    54   0   1   0.0      14.882152382130323      1.0029163150165989      15.373467716730859
    55   0   1   0.0      14.154078259180407      2.2465754333125547      15.473451019873405
    56   0   1   0.0      14.818628791180997      3.4989083841083479      15.525819971329746
    57   0   1   0.0      14.085605150399104      4.7004569653621795      15.586880300947945
    58   0   1   0.0      14.822141238736227      5.9382773325270071      15.583622787688242
    59   0   1   0.0      14.104986576747235      7.1684024141053575      15.591002327474891
    60   0   1   0.0      14.840280294844586      8.4066213705124984      15.608538381944459
    61   0   1   0.0      16.309121605396335      20.806892237839797      15.988290186132346
    62   0   1   0.0      4.1214188957945801      9.6159367875273052      15.699179945978978
    63   0   1   0.0      16.295806832427399      10.911957494894301       15.57665447036011
    64   0   1   0.0      4.1113135486964074       12.10426992342439      15.806633714993303
    65   0   1   0.0      16.322522651180567      13.363377584799089      15.625047089030518
    66   0   1   0.0      4.1260166245722996      14.652700364024184       15.89684463224599
    67   0   1   0.0      16.327035847319255      15.857309336035854      15.737760260592657
    68   0   1   0.0       4.097403152751447      17.036090049400265      16.071892593101648
    69   0   1   0.0       16.30634704561259       18.35192516701364      15.751306771812384
    70   0   1   0.0      4.1766440788774055      19.508379076918615      16.440012540203277
    71   0   1   0.0      5.5399368411574539      9.6022659584485783      15.654823332583806
    72   0   1   0.0      6.2927878356755045      10.862753451879064      15.604500951103946
    73   0   1   0.0       5.583905133841486      12.092597723231828      15.724651897211185
    74   0   1   0.0      6.2777507562130399      13.355302861453625      15.845787794469066
    75   0   1   0.0      5.5565360637308014      14.597373164170696        16.0333544490313
    76   0   1   0.0      6.3043933640683081      15.810973443289882      16.102414483925489
    77   0   1   0.0      5.5405005216300705      17.089993015639511      16.209101877560766
    78   0   1   0.0      6.2682213628007917      18.328242989750741      16.223879786160566
    79   0   1   0.0      5.6116731637843733      19.528943699362941      16.388396419898285
    80   0   1   0.0      6.2899882825084115      20.796238933573299      16.401572445642302
    81   0   1   0.0      7.7163861841135333       20.85807917584059      16.319796281838261
    82   0   1   0.0      8.4029036497108773      9.6183555757538226      15.578125693608415
    83   0   1   0.0      7.7317256796524267      10.880520184509926      15.649643188825371
    84   0   1   0.0      8.3883747782670426      12.116602140116836      15.674043730157688
    85   0   1   0.0      7.7171560954037419      13.329590995248505      15.843253520280804
    86   0   1   0.0       8.416666734422332      14.600507189089704      15.935018866907392
    87   0   1   0.0      7.7264112385192245      15.853053244102304      16.061198591611355
    88   0   1   0.0      8.3652504121230127       17.13050390614972      16.083820709689224
    89   0   1   0.0      7.6571707329821637      18.336101983161154      16.197796220987378
    90   0   1   0.0      8.3640730349830523      19.554645549259192      16.265617628123223
    91   0   1   0.0      9.8626210791827269      9.6477911565726089      15.683665233361534
    92   0   1   0.0      10.529687267725105       10.88999216013527      15.577858344707119
    93   0   1   0.0      9.8535928328990305      12.112708638739992      15.709724121538816
    94   0   1   0.0      10.560576011474875      13.393908108745716       15.94932000025114
    95   0   1   0.0      9.8504696675756414      14.624157779894162      16.016826314735138
    96   0   1   0.0       10.55187253365547      15.849686729917956      16.114684341455607
    97   0   1   0.0      9.8375018552516167      17.113148247347471      16.234623759802556
    98   0   1   0.0      10.606694991166387      18.301615925661888      16.273468370197282
    99   0   1   0.0      9.8501609444420453      19.515891739930954      16.232130977336421
   100   0   1   0.0      10.582917692635103      20.734073563820697      16.198675808299033
   101   0   1   0.0      12.032656434117149      20.757219947509167      16.243090652345725
   102   0   1   0.0      12.668646708584637      9.6460585943698796      15.674212502861614
   103   0   1   0.0      11.978286018299139      10.883962825404137      15.606925606574496
   104   0   1   0.0      12.728764242442079      12.141517342632699       15.65572564596339
   105   0   1   0.0      12.022807043067687      13.405798222013727      15.930570134235216
   106   0   1   0.0      12.760493415598109      14.621890360073673      15.990562510681569
   107   0   1   0.0      11.995860235989937      15.860456350278422      16.153199133226977
   108   0   1   0.0      12.772600481629626      17.106051612362076      16.151524180109664
   109   0   1   0.0      12.037790447693007       18.34631763704834      16.191701321325137
   110   0   1   0.0      12.771274294561911       19.54907309397602      16.211399084939742
   111   0   1   0.0      14.109430797192795      9.6585463077447251      15.703983246498911
   112   0   1   0.0      14.884485882905299      10.876928621711278      15.694398616232084
   113   0   1   0.0      14.144127314957268      12.146383695898859      15.673164005027328
   114   0   1   0.0       14.90481339182619      13.349349540314849      15.686642357454676
   115   0   1   0.0      14.191207698959927      14.586360739706727        15.8338904146279
   116   0   1   0.0      14.930047700044533      15.832607337528847        15.8646203271977
   117   0   1   0.0      14.212855162274915      17.096986842153438      15.996357637056075
   118   0   1   0.0      14.907707312470801       18.32089314716529      15.874944246644114
   119   0   1   0.0       14.16148618393129      19.563651417224065      16.035686831031914
   120   0   1   0.0      14.901804130535794      20.783745863403823      16.100954120765053
   121   0   1   0.0       16.24041935450974      33.166025059249755      15.302290889767745
   122   0   1   0.0      4.1503562687345541      21.979667185796409      16.331768172603162
   123   0   1   0.0      16.328113498268529      23.305252985385234      15.986494051619085
   124   0   1   0.0      4.1800425669092451       24.46292992035384      16.219210827931313
   125   0   1   0.0      16.325977318755506      25.786795398624587      16.031187372056348
   126   0   1   0.0      4.1412779609740173      26.934992124375867      16.124372160840338
   127   0   1   0.0      16.314896458274077      28.255546268960764      15.743652850067447
   128   0   1   0.0       4.142625524323341      29.408168169881574      16.135752325231067
   129   0   1   0.0      16.265064070030469      30.720975110813665      15.569305969538197
   130   0   1   0.0      4.0761256275873015      31.908385116764077      15.840898453115228
   131   0   1   0.0      5.5896783333218316      22.038899366808408      16.394467762375907
   132   0   1   0.0       6.311545700065964      23.319415480681204        16.3550396395331
   133   0   1   0.0      5.6013326061344006       24.54185313206202      16.222508443473131
   134   0   1   0.0       6.301319563432183      25.770705892482191      16.135909360878895
   135   0   1   0.0      5.5619893815005899      26.967668698867719      16.088776888809935
   136   0   1   0.0      6.3262403580438571      28.199585276217043      15.963795795740113
   137   0   1   0.0      5.6002716707166051      29.414402819258719       15.96641555101686
   138   0   1   0.0      6.2362395017427366      30.633281443782757      15.941173982534597
   139   0   1   0.0      5.5442765492606307      31.923379259667549      15.783458161295892
   140   0   1   0.0      6.2727122274669718      33.142511972170595      15.704307734027152
   141   0   1   0.0      7.7021428418119289      33.171235177359925      15.523651939443155
   142   0   1   0.0      8.4216223012012641      22.076573807027017      16.244299623872042
   143   0   1   0.0      7.7650246171350927      23.342325611904872      16.315151629482248
   144   0   1   0.0      8.4636283747770182      24.566436398301555      16.146641294555277
   145   0   1   0.0       7.744355293442859      25.794436942660621      16.126641177171546
   146   0   1   0.0       8.454408732551304       26.98846757534028      15.979832295484638
   147   0   1   0.0      7.7461485596498294      28.162850330011977      15.932171517847658
   148   0   1   0.0      8.4547837397828278      29.430919454892972      15.904811742782481
   149   0   1   0.0       7.707614871571205      30.676418721043106       15.82397405949205
   150   0   1   0.0      8.3761372911596812      31.931908482325522      15.681899704377242
   151   0   1   0.0      9.8799397346706588      21.994955137588907      16.156790252776354
   152   0   1   0.0      10.586923955392891      23.247301910953524       16.10369581903911
   153   0   1   0.0      9.8916189037978732      24.514598452233606      16.049865789837551
   154   0   1   0.0      10.602646091107209      25.733100113865067      15.956722179790201
   155   0   1   0.0      9.8728725352699538       26.96091251821202      15.921346124388318
   156   0   1   0.0       10.59109430596493      28.217048904637217      15.782887725954811
   157   0   1   0.0      9.8857309556318214      29.434232918696772      15.824556304272143
   158   0   1   0.0      10.617677966070598      30.670168825752519      15.724676979632374
   159   0   1   0.0      9.8914325331995858      31.912743431522848      15.657260889580023
   160   0   1   0.0      10.562067697807326      33.169851490432073      15.577142402332836
   161   0   1   0.0      12.012612230343148      33.170555127208637       15.49817872911596
   162   0   1   0.0      12.728734460755616      22.012486673967928      16.267861310585193
   163   0   1   0.0      12.015439696296809      23.242989243913495      16.109189561698184
   164   0   1   0.0      12.787078141768358      24.465162493129387      15.992559840237726
   165   0   1   0.0      12.043535401772434      25.723882419067682      15.872167894926465
   166   0   1   0.0      12.697311922618784      26.966372544267937      15.803801173732282
   167   0   1   0.0      11.995874168930966      28.228470200801731      15.731467568356013
   168   0   1   0.0      12.683851264759735      29.519214339443771      15.575676912398956
   169   0   1   0.0      11.985933906704494      30.733966173671266      15.584062076809928
   170   0   1   0.0      12.732637851914069      31.938567043051062      15.552032877669152
   171   0   1   0.0      14.154291114163795      22.032362908606792      16.186224665831649
   172   0   1   0.0      14.889486194840574      23.270784449365795      16.121841255954326
   173   0   1   0.0       14.17600056854319      24.520668611047881      16.048249325908994
   174   0   1   0.0      14.885989123872449      25.786636786912222      16.024106293752656
   175   0   1   0.0      14.170408301481821       27.01691545650591       15.81404640773721
   176   0   1   0.0      14.874163783880615      28.238797361938264      15.738013359180229
   177   0   1   0.0      14.134789398696284      29.484642676379345      15.647837677152479
   178   0   1   0.0       14.80838776616779      30.724232566506583      15.632667212160312
   179   0   1   0.0      14.139490254819854      31.956006007849695      15.477292908094467
   180   0   1   0.0      14.841801861805287       33.16193330568565      15.344323160174516
   181   0   1   0.0      16.275506643459757      45.544689187569205      14.472953288692679
   182   0   1   0.0      4.1557609423334823      34.331140903665215      15.411597774937988
   183   0   1   0.0      16.295969330278208       35.63415545495981      15.246957188707176
   184   0   1   0.0      4.1909957718050412      36.829263165419292      15.178859555285733
   185   0   1   0.0      16.324183635531284      38.141297048486358      15.187283867066505
   186   0   1   0.0      4.1755202671851439      39.241444485877246      15.096653982843943
   187   0   1   0.0      16.259209155260375      40.660537538223878      15.217634922612687
   188   0   1   0.0      4.1098407412626967       41.75883198799437      14.924224850289226
   189   0   1   0.0      16.227848760593385      43.089056880604204      14.974148846802565
   190   0   1   0.0      4.1832286866727166      44.235813930416434      14.906409601313637
   191   0   1   0.0       5.547401808940382      34.352771842327456      15.419046248849435
   192   0   1   0.0       6.263117175888417      35.592539242080527      15.217701118711657
   193   0   1   0.0      5.5975232311083332      36.835186955464835      15.194014656842208
   194   0   1   0.0       6.312763701283866      38.113202359045786      15.123635897254264
   195   0   1   0.0      5.6057960285721826       39.33966324684777      15.033117429361761
   196   0   1   0.0      6.2884034649650742      40.526029616982072      14.790502637584895
   197   0   1   0.0      5.5639815107806365      41.795931391402092       14.77491440487103
   198   0   1   0.0      6.3051510416682941      43.002570327476214      14.664595951673277
   199   0   1   0.0      5.5951409292845486       44.24180990844399      14.753403660093682
   200   0   1   0.0       6.298811171343357      45.512741260063663      14.635823366873238
   201   0   1   0.0      7.6710504693441832      45.509686397492359      14.391546183372546
   202   0   1   0.0      8.3775184103976841      34.411645207484668       15.26653068322808
   203   0   1   0.0      7.6996679898739799      35.653062654554383      15.177597620505104
   204   0   1   0.0      8.4278428916615606      36.845092838048096      15.032229134008348
   205   0   1   0.0      7.7449800933871709       38.05807133530039      15.008245295237582
   206   0   1   0.0      8.4528954011968906      39.307001432911363      14.796965271259142
   207   0   1   0.0       7.704426130966846      40.533244053757784      14.704868543151537
   208   0   1   0.0      8.4053934553493246      41.810884013109494       14.60689643411172
   209   0   1   0.0      7.6845431309329291      43.018893075335832      14.575531392623184
   210   0   1   0.0      8.4057566067178762      44.261816048746816      14.362139210992792
   211   0   1   0.0      9.8325161199862414      34.418883582072873      15.309511263736274
   212   0   1   0.0      10.540642270030993      35.604980885460222       15.19720676484901
   213   0   1   0.0        9.84821847190595      36.838985865671212      14.983421751858801
   214   0   1   0.0       10.57693481229267      38.036152081828561      14.847853583313489
   215   0   1   0.0      9.8634825280983556       39.29841502951556      14.685815706594678
   216   0   1   0.0      10.565324084588404       40.54519800737441       14.67072299722285
   217   0   1   0.0      9.7906221556287605      41.775765580030736      14.518474016203603
   218   0   1   0.0      10.547999822050807        43.0085987833505      14.555004909180211
   219   0   1   0.0      9.8443485516399338      44.280860708036009      14.371570902806177
   220   0   1   0.0      10.538187817524896      45.457199803816977      14.324524563870282
   221   0   1   0.0       11.96922744484983      45.503982933107302      14.314928696668847
   222   0   1   0.0      12.702892076259058      34.397300222839867      15.293702183312915
   223   0   1   0.0      12.008601192529632      35.621757224502794      15.174375093329637
   224   0   1   0.0      12.755822154728598      36.819886642717634      15.111077475443029
   225   0   1   0.0      12.016345736831171      38.043655549373845      14.981866928948568
   226   0   1   0.0      12.688618232806411      39.285575530124255      15.043126223938149
   227   0   1   0.0      11.985594391804314      40.567617316725325      14.882567223327902
   228   0   1   0.0      12.670743697772693      41.850002109848077      14.982950186087781
   229   0   1   0.0      12.000372776933199      43.048563495241666      14.673306814396128
   230   0   1   0.0      12.680895062619314      44.320628250539706      14.652452301375181
   231   0   1   0.0       14.13404300728048       34.40023126774453      15.322235283311805
   232   0   1   0.0      14.859298480393701      35.640673901398074      15.223019073680803
   233   0   1   0.0      14.155578281599245      36.901870263371769      15.061448814189914
   234   0   1   0.0      14.874738678223975      38.155767282615564      15.214955134340894
   235   0   1   0.0       14.13140234009388      39.378894565668915      15.157001730049858
   236   0   1   0.0      14.826163759432845      40.589616110384625      15.198633519114065
   237   0   1   0.0      14.073979978421985      41.847231610919103      15.065230421660683
   238   0   1   0.0      14.795911509427341      43.074525170990583      14.876153833421361
   239   0   1   0.0      14.080939425947285      44.313322592905401      14.660864123080293
   240   0   1   0.0      14.893786592679744         45.491154728626      14.348936671621464
   241   0   1   0.0      16.221139761682892      57.776288867235351         13.219993385809
   242   0   1   0.0      4.1859618186218359      46.685308492535633      15.066982693903807
   243   0   1   0.0      16.278980849771383      47.927749335548185      14.125202148090994
   244   0   1   0.0      4.1199494535804257      49.157327180537308      14.717363970587879
   245   0   1   0.0      16.196941799358026      50.411895486268037      13.836734965578078
   246   0   1   0.0      4.0982406059248557      51.580845531791638      14.263670036868794
   247   0   1   0.0      16.201616711727802      52.824264748341669      13.528370124651438
   248   0   1   0.0      4.0412652920983501      54.048917133981227      14.061193355241464
   249   0   1   0.0      16.203491064979396      55.296417753335774      13.354664454378188
   250   0   1   0.0      4.1113009445513082      56.580256808518563      14.163094777008444
   251   0   1   0.0      5.6096053960551311      46.685700097324485      14.816332797272889
   252   0   1   0.0      6.2419927764643077      47.978115942775354      14.653790134136024
   253   0   1   0.0      5.5282359413504256      49.165968880820479      14.601771393598026
   254   0   1   0.0      6.2515798983525901      50.362127880867916      14.395965517128595
   255   0   1   0.0      5.5661446866002064       51.60727968030703      14.162956610406127
   256   0   1   0.0      6.2312630620321148      52.835761544418183      13.859619831654364
   257   0   1   0.0      5.4702309103512174      54.017167798950283       13.86860175316408
   258   0   1   0.0      6.2197856161782283      55.230365875357293      13.884876325728913
   259   0   1   0.0      5.5133884873506691      56.523569676718473       14.03522630431906
   260   0   1   0.0      6.1952362676407251       57.76090968097423      13.910407758692806
   261   0   1   0.0      7.6424713770079835      57.802620102677373      13.809917667144095
   262   0   1   0.0       8.363332554299614      46.722609522010615       14.32496104643365
   263   0   1   0.0      7.6868060866239309       47.98178787382696      14.472188875415515
   264   0   1   0.0      8.4005865744200605      49.181440726371271      14.305586177733653
   265   0   1   0.0      7.6935228508577618        50.3981478984036      14.287985628843465
   266   0   1   0.0      8.4080450871629804      51.603980245021539      14.058828806251142
   267   0   1   0.0       7.650013507310037      52.832432935709164      13.811784336139919
   268   0   1   0.0      8.3211189979556472      54.092225709600712      13.593849052394321
   269   0   1   0.0      7.6202597767017997      55.285815276299466      13.802330421635244
   270   0   1   0.0      8.2907602820983346      56.531139857461518      13.753754410722221
   271   0   1   0.0      9.8194590598608151        46.7047310242801      14.159262798981127
   272   0   1   0.0      10.542624268714683      47.941122444018688      14.086837581976871
   273   0   1   0.0      9.8119965307382557      49.117495365133323      14.144956306928316
   274   0   1   0.0      10.545470583924153      50.374562045954605      13.924665583993928
   275   0   1   0.0      9.7769591779963818      51.614812369253933      13.873699553236387
   276   0   1   0.0      10.471135289923392      52.822680609583124      13.730257510261641
   277   0   1   0.0      9.7555308856004146      54.058365006476969      13.553445091862818
   278   0   1   0.0      10.431101145188745      55.305929998506436      13.527588706282476
   279   0   1   0.0      9.7355473284432055      56.575764270891092      13.664874982751478
   280   0   1   0.0      10.495754835352688      57.730209742264464      13.575830675793652
   281   0   1   0.0      11.901573407331133      57.807041044315078      13.409428317558504
   282   0   1   0.0      12.728084462683151      46.705429538046246      14.035056131059621
   283   0   1   0.0      11.960253184846861       47.93124788113991      13.998008561830076
   284   0   1   0.0      12.700440630489185      49.151202510145907      13.789396400449228
   285   0   1   0.0      11.956369705649346      50.359056270566342       13.78401993732896
   286   0   1   0.0      12.622421599632492      51.619112978257618      13.586051914239137
   287   0   1   0.0      11.920092627113599      52.871100094662651      13.687219483761886
   288   0   1   0.0      12.663092226029155      54.118774420305279      13.542519001499629
   289   0   1   0.0      11.899103161796759      55.339374714403426      13.457940000114139
   290   0   1   0.0      12.597053845047366      56.622741536772054      13.312821587852252
   291   0   1   0.0      14.154687354566772      46.717495277633965      14.080055400837342
   292   0   1   0.0      14.872591567918251       47.91436781278906        13.9837705069452
   293   0   1   0.0      14.129175542663063      49.139226864839976      13.859552137665924
   294   0   1   0.0      14.767815980316794      50.370400722148169      13.861889282777987
   295   0   1   0.0      14.008355230308693      51.661995182670175      13.795387431207809
   296   0   1   0.0       14.82063074237591      52.812382537963977      13.597739062043715
   297   0   1   0.0      14.083770845354358      54.057512454733995      13.493710707351038
   298   0   1   0.0      14.744831364092743      55.326374061790069      13.429519553747831
   299   0   1   0.0      14.020561249321906      56.538201668256384      13.386120883915513
   300   0   1   0.0      14.762332470286283      57.769538030595207      13.328167312744657
   301   0   1   0.0      16.179533199646063      70.174166985426524      13.846618893895805
   302   0   1   0.0      4.0622971099631027      59.027771434890873      14.040104428612983
   303   0   1   0.0      16.168938638987644      60.281955508156969      13.385392631684828
   304   0   1   0.0      4.0501845603258815      61.488830561644626       14.10778771000472
   305   0   1   0.0      16.227440027326079      62.749090280641511      13.479665950507682
   306   0   1   0.0      4.1129350933452562      63.953451284329091      14.159675113185575
   307   0   1   0.0      16.200666193609457      65.190980253858768      13.660091602321421
   308   0   1   0.0      4.1353387443534499      66.397343606459799      14.330550539766843
   309   0   1   0.0      16.202457379786242      67.697778279939882      13.760765922075207
   310   0   1   0.0      4.0478093834049016      68.859710176679002      14.420537710159998
   311   0   1   0.0      5.5189242032047723      59.011766654390435      13.913066360351189
   312   0   1   0.0       6.176837439337759      60.251418847576637      13.915177027341281
   313   0   1   0.0      5.4823832544715572      61.477740836687744      13.997315982962757
   314   0   1   0.0      6.2067449401149419      62.743776248665931      14.041242955977447
   315   0   1   0.0      5.5205828903415473      63.974289937178803      14.128945244481073
   316   0   1   0.0      6.2375729625610843      65.190008113342898      14.220872780432071
   317   0   1   0.0      5.5403336097696245      66.438339399521496      14.361354441645791
   318   0   1   0.0      6.2699997872804039      67.678055074585416      14.380973520643069
   319   0   1   0.0      5.4652189457070222      68.830736804253092      14.474772081300625