LAMMPS data file via write_data, version 4 Feb 2025, timestep = 100000, units = metal

14040 atoms
2 atom types

0 77.00399999999999 xlo xhi
0 74.1 ylo yhi
0 75 zlo zhi

Masses

1 1.007999999740698
2 15.99899999588435

Atoms # full

13707 0 1 0 3.579425394885452 8.2908028156309 7.229509168719949 1 1 0
2311 0 2 0 3.9347951206562235 2.5998276970402325 9.757561006880074 0 1 0
2312 0 1 0 4.049576084672948 2.4225365535032792 10.676180759655479 0 1 0
13828 0 2 0 2.3923014256558996 0.0757037157330815 9.520186275974938 1 1 0
2313 0 1 0 3.379219206248159 1.936031772445758 9.41312490695594 0 1 0
13789 0 2 0 1.9231219685328662 3.8081475313944444 13.5155196412135 1 1 0
13838 0 1 0 3.8973234307029188 9.224856368441301 13.412623752956355 1 1 0
138 0 1 0 4.328590856990886 4.369390346426327 9.066415432584222 0 0 0
13790 0 1 0 2.692974283949066 4.2520886673603195 13.17748171710038 1 1 0
301 0 2 0 0.8500642306412959 5.853039547415911 14.76215298333972 0 0 0
2004 0 1 0 2.897119720343393 0.9880211427302976 14.555623139884302 0 1 0
13791 0 1 0 2.1717265753565584 2.999751979021834 13.93230899546382 1 1 0
72 0 1 0 1.2124805169924544 5.059152220201964 10.09486808320829 0 0 0
4546 0 2 0 3.8811452694990787 6.559041692618886 11.52264882511592 0 1 0
71 0 1 0 1.8564606158630277 3.6894370155467393 10.018426734469347 0 0 0
302 0 1 0 1.2953474616795544 5.158367935363176 14.18492489397326 0 0 0
70 0 2 0 1.0649876527512523 4.185855612341046 9.662756078247808 0 0 0
74 0 1 0 1.851050623835487 7.126102397083827 11.187881083338736 0 0 0
4548 0 1 0 4.271596967465162 6.10534928864016 10.79106868184529 0 1 0
73 0 2 0 1.1435460394662436 6.810279979849589 10.564904622068136 0 0 0
75 0 1 0 0.5154294603352796 7.505276245066501 10.449795342016508 0 0 0
13705 0 2 0 3.966958318703827 8.122694684521731 8.080044964310916 1 1 0
12411 0 1 0 4.364458554264016 8.115788535947829 11.64309693945901 1 0 0
13706 0 1 0 4.027316826120765 7.13951045796166 8.195562569921009 1 1 0
2002 0 2 0 3.026858715975704 1.8439514851485448 14.999960375848401 0 1 0
4547 0 1 0 4.188191491875032 6.201325697078531 12.378093220190696 0 1 0
12409 0 2 0 4.748757394085316 8.956102579201007 11.91638569569787 1 0 0
136 0 2 0 4.795263125526413 5.268932555901431 9.024797025845318 0 0 0
31 0 2 0 4.593017489401965 6.014082847708073 13.935785699890374 0 0 0
11726 0 1 0 1.5763065447704727 9.201570754548248 14.33071732373349 1 0 0
13702 0 2 0 0.25965798599525797 0.8452347224059317 17.31347849314088 1 1 0
101 0 1 0 3.7439010636192607 0.8984801701716987 20.18590233912621 0 0 0
14025 0 1 0 1.3541737606913815 8.113333647334244 19.303791312655992 1 1 0
12052 0 2 0 0.34099815637959535 3.642886140299556 21.854786656689082 1 0 0
11872 0 2 0 3.0946887666549974 2.955086317190967 17.97340307206474 1 0 0
2003 0 1 0 2.700844991464526 1.729100297757899 15.881836054147456 0 1 0
2285 0 1 0 0.03949859201024708 3.9667222178278996 18.255101176031822 0 1 0
11873 0 1 0 2.1921147363834272 3.1436683096876785 18.30962333346789 1 0 0
12198 0 1 0 3.734513508096748 6.3532845185574365 17.093832363789378 1 0 0
11733 0 1 0 2.648179123564929 8.263693234016282 16.971540518921866 1 0 0
11732 0 1 0 3.2963682525671576 8.179379700002832 15.54998577549155 1 0 0
227 0 1 0 4.0352370408640015 5.915837943710291 21.012583542883714 0 0 0
102 0 1 0 3.7848275530248774 2.0102709970286394 19.127702795442843 0 0 0
11874 0 1 0 3.4805253663932607 3.8558339901527843 18.190212324757248 1 0 0
100 0 2 0 4.310746774730815 1.5390750548387833 19.8079328639953 0 0 0
1809 0 1 0 0.6290882556822582 0.5894882072103733 20.56461693215091 0 1 0
352 0 2 0 3.9260263981017895 3.827749560213627 21.760078481240356 0 0 0
226 0 2 0 4.129341865175396 6.884811001980153 20.87967856672043 0 0 0
371 0 1 0 0.6817986240090982 3.822800977417776 20.296579636057796 0 0 0
12196 0 2 0 4.177804961580574 5.7247919534730904 17.735263786212283 1 0 0
12053 0 1 0 0.9717489597529381 3.9644699025931334 22.48175643548631 1 0 0
14009 0 1 0 3.3603755061315854 7.862200239360189 22.354706482171665 1 1 0
1808 0 1 0 1.288064970068431 0.2222476814631471 19.159695839169718 0 1 0
12197 0 1 0 3.979463910508667 6.13329575745932 18.55855751436484 1 0 0
14024 0 1 0 2.891121269531164 8.073464047602831 19.64821346172743 1 1 0
14023 0 2 0 2.2268662257182092 8.43388186973332 19.037720896503075 1 1 0
11731 0 2 0 2.9701253910287178 7.646272517056357 16.290595555735162 1 0 0
372 0 1 0 1.208519654343328 5.038156726822232 19.51955964234575 0 0 0
370 0 2 0 1.1017321885261135 4.0539572051010015 19.419451990688735 0 0 0
353 0 1 0 3.7534051826784816 3.072583137307579 21.20621784943257 0 0 0
11824 0 2 0 0.20157122605631086 6.7343753052774185 20.721313092358713 1 0 0
13664 0 1 0 4.561161323809419 0.5837510558668084 18.095709650912347 1 1 0
2144 0 1 0 0.24567688480372732 0.6994578488504479 22.579362013742546 0 1 0
9 0 1 0 1.1483730594554091 8.540316635889043 22.6242365819461 0 0 0
303 0 1 0 1.5742410095436838 6.235096545126307 15.323414471763995 0 0 0
13834 0 2 0 1.1359097604080397 1.5148965896039206 29.14544907969584 1 1 0
13836 0 1 0 1.2450932136006454 1.3467922394909273 28.21306718675902 1 1 0
13776 0 1 0 2.59627152232264 2.7600561215722856 25.471059833373285 1 1 0
2191 0 2 0 4.46748870169501 1.4571914755860964 30.10863355693955 0 1 0
2131 0 2 0 3.74089287690587 8.86590400020535 27.627871551471653 0 1 0
174 0 1 0 4.030283978986328 5.080311415227381 25.17222367298571 0 0 0
2133 0 1 0 3.160577361106759 8.267672321376677 27.078015871443554 0 1 0
13835 0 1 0 1.402172550468924 2.4070175387277413 29.4389694901712 1 1 0
1724 0 1 0 3.008982792140913 4.232508921123259 29.618087622498795 0 1 0
13865 0 1 0 1.3051788908762603 8.495813912974585 25.916792083973377 1 1 0
2096 0 1 0 2.6429957097711525 0.3145982029141095 26.542032907086227 0 1 0
13818 0 1 0 3.1791229379021706 6.936949982504231 30.0495968110333 1 1 0
2192 0 1 0 4.10092233992113 0.5739054941011918 30.126824960012645 0 1 0
172 0 2 0 3.228700978938744 5.092291129955856 25.692535974299584 0 0 0
13775 0 1 0 1.906512796424302 1.7573106476119393 24.567609581935017 1 1 0
7 0 2 0 0.28452179615571 8.957411450792012 22.910923334605684 0 0 0
13748 0 1 0 3.5097645784474865 5.392015087593126 27.70929982969019 1 1 0
13747 0 2 0 3.882027156782406 5.193220199849369 28.567411716155966 1 1 0
456 0 1 0 0.5526088991384704 6.045634141732759 23.819315147855992 0 0 0
454 0 2 0 1.4655204154638903 5.7987775865756035 23.548893551922806 0 0 0
14010 0 1 0 3.5915327544886835 8.476160436383983 23.67696208296486 1 1 0
13774 0 2 0 1.855259504521415 2.7452645664690483 24.789131419006594 1 1 0
2095 0 2 0 3.5754164502232983 0.5392860140273122 26.35504169486346 0 1 0
13864 0 2 0 1.745718120805686 7.782389866452764 26.432100806416777 1 1 0
13866 0 1 0 1.8192498697976924 6.984313876426775 25.900038844917223 1 1 0
14008 0 2 0 2.8533168164648983 8.069453655454794 23.142235406127295 1 1 0
455 0 1 0 2.0623288423057593 6.575975356317826 23.359967705167566 0 0 0
173 0 1 0 2.564731168977833 5.0904998612883805 24.981066793369177 0 0 0
1723 0 2 0 2.3398755049629276 3.674384990611263 30.210494609718715 0 1 0
2129 0 1 0 0.6446446201270113 4.03709878028407 26.33266536715489 0 1 0
196 0 2 0 0.4945027306141747 0.1056086794051774 26.584375379528275 0 0 0
2097 0 1 0 4.015824703541835 0.1724945139025886 27.214014521014388 0 1 0
339 0 1 0 4.531860005876544 1.7251044120778016 25.13210182750962 0 0 0
354 0 1 0 3.9886954551732403 3.5976979242575355 22.688795954199882 0 0 0
2193 0 1 0 3.6793404561378744 2.0741882890817647 30.16154989485779 0 1 0
385 0 2 0 3.854868208188585 1.5707354966036036 35.43442270390956 0 0 0
386 0 1 0 3.838925907321216 2.356082591446602 36.00425460246261 0 0 0
330 0 1 0 2.1086518634751146 8.705241150994445 30.656116002127018 0 0 0
111 0 1 0 2.668639480464628 2.2872111227581766 33.94912258389599 0 0 0
13921 0 2 0 3.753295852714332 4.792713228342696 35.51747072726707 1 1 0
109 0 2 0 1.6960454973766768 2.215788357941659 33.71263525241224 0 0 0
11811 0 1 0 1.5673300492165787 0.763132587429218 32.161220778273275 1 0 0
1725 0 1 0 2.4254703265530573 4.097553252647157 31.12239262567116 0 1 0
2073 0 1 0 4.376633783141831 9.038743871266115 30.418909597376462 0 1 0
110 0 1 0 1.2235738985889393 2.1702294400634856 34.56393218272383 0 0 0
13923 0 1 0 2.988809564475819 5.20091110693726 36.00302058705097 1 1 0
2261 0 1 0 0.9074833429937753 6.634394168784053 36.501060313849294 0 1 0
13816 0 2 0 3.1880928459124167 7.366940896025494 30.936407069432303 1 1 0
4413 0 1 0 0.5441313203336279 7.510019308309447 33.59128423347225 0 1 0
4412 0 1 0 0.7624333422730867 6.1875565888231785 32.81579115674874 0 1 0
13817 0 1 0 2.9786239451793 6.595409047056025 31.562743554516366 1 1 0
2111 0 1 0 4.469163611486184 4.8031244111280325 32.49660311602989 0 1 0
2260 0 2 0 1.046343310213078 5.740419003515208 36.250134171906744 0 1 0
2262 0 1 0 1.0719293817876607 5.7885068425536135 35.26479367229494 0 1 0
2112 0 1 0 3.454066915774581 5.120816053715602 33.50276224999479 0 1 0
4411 0 2 0 1.0757869349319695 6.690806255405411 33.602817099061426 0 1 0
2110 0 2 0 3.5283159683952454 5.039501174470165 32.503234402789055 0 1 0
11810 0 1 0 1.1299123350526772 0.47761134275729955 30.74127553473456 1 0 0
13922 0 1 0 4.562928394169894 5.114914205374469 35.92512244891056 1 1 0
208 0 2 0 0.38773671393534825 8.973871798865664 36.00003392299032 0 0 0
11809 0 2 0 1.4569098625006827 0.03848281175069701 31.545624498853105 1 0 0
387 0 1 0 4.6968303525394495 1.4059640097231236 34.928154629893605 0 0 0
36 0 1 0 2.707485575392884 0.1277837576227796 36.28034541471393 0 0 0
11847 0 1 0 2.7984038378415876 9.927178081195303 9.532966214668516 1 0 0
9681 0 1 0 2.244534305427773 11.16654430864617 11.551705483425803 1 0 0
11725 0 2 0 0.6508606690689378 9.356713224112719 14.62617620580399 1 0 0
11845 0 2 0 3.2797294200164013 10.53419834823215 10.087726922754849 1 0 0
11846 0 1 0 3.9373712307279756 9.973020724450977 10.505726121952854 1 0 0
11786 0 1 0 3.8356856057929662 12.577721972190972 10.405648810430723 1 0 0
12209 0 1 0 0.026958690118162536 16.82911868500732 11.009220290008535 1 0 0
12161 0 1 0 3.3788201201964623 12.788704275997103 14.260648557483579 1 0 0
12160 0 2 0 2.8591041718705283 12.027293890920932 14.4554995414408 1 0 0
12162 0 1 0 2.3046118450601467 11.93727672519198 13.610386514784471 1 0 0
12443 0 1 0 0.8249000566882453 14.732864782415483 14.844067933488855 1 0 0
13837 0 2 0 3.322072395903949 9.347895519558929 14.165078396809754 1 1 0
527 0 1 0 2.6000556003164896 16.558441652093144 15.06064843899713 0 0 0
12208 0 2 0 0.1127860258006844 17.438069973867304 11.749853250951745 1 0 0
13839 0 1 0 3.329326814611723 10.307412300161317 14.310665338868462 1 1 0
693 0 1 0 3.3044041971294935 16.267168372021313 12.290567734435172 0 0 0
12123 0 1 0 4.213327351076256 16.632703254418228 9.981221058534626 1 0 0
691 0 2 0 3.132543679736779 17.1026296984429 11.853634060611768 0 0 0
11882 0 1 0 4.801806167020166 14.843006645023479 13.401059091611435 1 0 0
62 0 1 0 0.6740409561780796 15.551905019751995 8.517951018483767 0 0 0
11785 0 2 0 4.404433112938807 13.351234390337419 10.638925013074923 1 0 0
528 0 1 0 2.7951421887905363 15.216552951539354 14.140917625742361 0 0 0
692 0 1 0 2.126305629188498 17.114896346854383 11.760079562757467 0 0 0
11881 0 2 0 3.9641643863218614 14.449554776703529 13.149072396780138 1 0 0
11727 0 1 0 0.5136796961988216 10.23976097187182 14.295906310402353 1 0 0
9680 0 1 0 1.000650104976389 12.18361599632135 11.614271296906178 1 0 0
9679 0 2 0 1.4682757516811342 11.471194246130114 12.096710736928882 1 0 0
526 0 2 0 2.1778417078687893 15.778116212641306 14.69984762674317 0 0 0
12122 0 1 0 4.51566976136573 15.202913507236119 9.85044897653067 1 0 0
11883 0 1 0 4.201679305180685 13.835939149687304 12.369491857040765 1 0 0
11955 0 1 0 2.608217566881916 13.846720678398041 20.663649797070256 1 0 0
11953 0 2 0 3.433891747262638 13.93988181291051 20.190944275677015 1 0 0
11954 0 1 0 4.141466648913349 14.16104557832481 20.80504062558498 1 0 0
12407 0 1 0 2.4484287668896827 15.848531347658803 20.180006175856064 1 0 0
11971 0 2 0 1.9207348687407055 18.40637249548852 18.085603025471936 1 0 0
679 0 2 0 2.415088917171706 12.895104219639336 17.148410630078452 0 0 0
12025 0 2 0 0.7754226414884892 13.85102981063042 21.15550379523339 1 0 0
680 0 1 0 2.397944190580493 12.34634638936842 16.348396459924242 0 0 0
681 0 1 0 1.6130935683977838 12.731403818310728 17.651729030630346 0 0 0
346 0 2 0 4.715932532601286 11.929955770530043 18.292155385188774 0 0 0
12253 0 2 0 3.127346361830301 18.18924499526169 15.880009462578899 1 0 0
176 0 1 0 3.8307278804744573 17.395176844773502 20.364252800090355 0 0 0
347 0 1 0 3.7937396610799268 12.294898475588164 18.154247995184114 0 0 0
12027 0 1 0 0.48511575658724426 12.965587917501626 21.5674123312272 1 0 0
12026 0 1 0 0.31105007468908424 13.937547455038573 20.26901783135482 1 0 0
12408 0 1 0 2.0865263247936783 16.414757959625824 21.55401087277681 1 0 0
495 0 1 0 2.7106232490369035 15.56151002559433 16.739906592730044 0 0 0
272 0 1 0 4.596367123979957 16.096963747446857 17.190418623872514 0 0 0
175 0 2 0 4.327910934985079 18.105474092989052 20.86213231402448 0 0 0
11973 0 1 0 1.826256651439971 17.484464815494928 18.544411689571962 1 0 0
494 0 1 0 2.9629042855151324 14.680690142142895 17.895508086455443 0 0 0
493 0 2 0 3.0119972655067064 15.618955536947698 17.650316740851355 0 0 0
12255 0 1 0 2.769965321211138 18.373113565844942 16.827537559714287 1 0 0
12406 0 2 0 1.8310540055053268 16.436971375845506 20.603810912257558 1 0 0
755 0 1 0 0.5226517389561229 18.441621099826047 22.137597575496255 0 0 0
682 0 2 0 1.2948039472564112 11.919409404475171 25.766153128610572 0 0 0
683 0 1 0 1.3629216426603188 12.878365784541913 25.443959535645718 0 0 0
11803 0 2 0 4.058707564442547 11.668951348556837 25.613523802836546 1 0 0
684 0 1 0 2.2184264390997424 11.670052330334824 25.718329643833943 0 0 0
11804 0 1 0 4.110420363145896 10.87615285591048 26.214195814932246 1 0 0
11805 0 1 0 4.484353153540014 12.47250525538182 26.033322676381033 1 0 0
2202 0 1 0 1.6209741676783542 11.384494635403502 27.55704638930864 0 1 0
148 0 2 0 2.8208040061659077 16.32857884458458 23.457695494705728 0 0 0
223 0 2 0 0.2310854924350662 17.967113841154465 25.67572411169816 0 0 0
2200 0 2 0 2.1805315076986087 11.186087085068744 28.365851918554824 0 1 0
122 0 1 0 0.047925105587037886 10.719087600789397 25.483186277730212 0 0 0
11995 0 2 0 1.363570654546679 14.356482710491559 24.992308965225757 1 0 0
2201 0 1 0 2.55266127020784 11.940227977221507 28.83758758621978 0 1 0
11996 0 1 0 1.1375817803187336 14.78126094483185 25.884215186085214 1 0 0
2132 0 1 0 3.2562419834217544 9.577454211921786 28.10418546441515 0 1 0
11747 0 1 0 3.242011724380844 14.289857224119007 29.1146834960096 1 0 0
149 0 1 0 2.279511066457411 15.876908797907705 24.20471396788672 0 0 0
566 0 1 0 0.9774123596992907 16.679353497746852 26.94194317849929 0 0 0
24 0 1 0 3.858536242433087 16.808710004677625 29.186546383106307 0 0 0
567 0 1 0 0.20379056940328774 15.619420588286232 27.70083865685438 0 0 0
690 0 1 0 2.526597813882874 17.975839025536764 23.177188603066167 0 0 0
11997 0 1 0 0.4600817475942927 14.25479342638247 24.535058012463637 1 0 0
22 0 2 0 3.6983536929821614 16.05564582288508 28.57471232330667 0 0 0
329 0 1 0 1.5001115856187848 9.687851650498404 29.51349605075627 0 0 0
23 0 1 0 2.85999077110374 16.248402588351816 28.073362145791894 0 0 0
150 0 1 0 3.7228356674676033 15.820246568580359 23.487067677464424 0 0 0
565 0 2 0 1.0564109008320666 15.757425754192447 27.2457882518775 0 0 0
11915 0 1 0 4.44085709725819 12.453337736350994 29.52435100712476 1 0 0
11746 0 2 0 2.9671025648837612 13.51299449363442 29.55854890665175 1 0 0
2592 0 1 0 4.780171688127425 14.72244072306284 27.10842359001118 0 0 0
11748 0 1 0 2.128516299656113 13.681649969077688 30.04266871638193 1 0 0
209 0 1 0 0.5045696784339438 9.802280518956684 36.46006089683495 0 0 0
13686 0 1 0 0.8748930583213405 10.731630121813652 31.406284526460148 1 1 0
13684 0 2 0 0.556123189101328 11.54068941344839 31.957031995154832 1 1 0
328 0 2 0 1.3918196719243807 9.39171247284727 30.42516553614288 0 0 0
158 0 1 0 2.860292173060438 16.310091138708252 32.54197030646647 0 0 0
311 0 1 0 2.5874603333987696 11.533666150951749 32.60722035698815 0 0 0
12187 0 2 0 1.0638664207096247 14.146331681554212 31.365756925176765 1 0 0
12189 0 1 0 1.6205563922105197 14.513119012604689 32.02903035887719 1 0 0
321 0 1 0 4.32964933638595 14.733783172035997 31.578964281281234 0 0 0
13685 0 1 0 0.15190081660733767 11.04516475455773 32.71514134282375 1 1 0
159 0 1 0 3.166423698013413 17.626391330028117 31.933630889132825 0 0 0
310 0 2 0 3.4423940230442605 11.87546881395265 32.962124332263876 0 0 0
157 0 2 0 2.461025065187073 17.126861878678074 32.30039802375602 0 0 0
472 0 2 0 4.7082331136864095 17.90281266625712 30.879537202223883 0 0 0
41 0 1 0 0.11732272482972306 18.16623664391326 30.64971218357579 0 0 0
12188 0 1 0 0.8097553971218756 13.280275738047015 31.744829520019167 1 0 0
312 0 1 0 3.4724250418185365 12.74857563025975 32.528027716781935 0 0 0
42 0 1 0 0.7490533490465382 17.06737537353484 31.498009842261716 0 0 0
467 0 1 0 1.4284462310926838 18.166202515172962 33.57208547712505 0 0 0
319 0 2 0 4.206185294730246 14.505382093795975 32.51654291651863 0 0 0
210 0 1 0 0.00447777603942002 9.323698066018252 35.18746615012062 0 0 0
12671 0 1 0 3.4158950940435884 21.504105985876283 8.4514586969848 1 0 0
12672 0 1 0 3.644612415410147 22.834027035193603 9.177993377289912 1 0 0
12670 0 2 0 3.535291634630951 22.437739106769413 8.260918976876338 1 0 0
12283 0 2 0 0.6971741375267778 20.11917973789042 12.659096814433042 1 0 0
145 0 2 0 2.0121350139086793 22.44484531981792 12.876502157151618 0 0 0
11766 0 1 0 4.271045934022244 19.920344113778665 13.511102692525268 1 0 0
11794 0 2 0 2.6801244590840767 20.000992325654234 10.058293658557798 1 0 0
147 0 1 0 1.4274137193655057 23.150830768916403 12.55588920431863 0 0 0
11796 0 1 0 3.1308291489876026 20.130612293319242 10.950618933644215 1 0 0
146 0 1 0 1.4660322053093051 21.60670896400838 12.761465228922678 0 0 0
12248 0 1 0 3.42863630461179 22.151468849670206 14.274337678722038 1 0 0
12247 0 2 0 4.179065329351943 21.838960245014675 14.874991918788748 1 0 0
11764 0 2 0 4.407281372383086 19.270863191927585 12.74992336593969 1 0 0
12285 0 1 0 1.0189953427397047 19.480988177830852 12.056320872135824 1 0 0
11795 0 1 0 2.9718492894504824 19.10002337954534 9.84461292405252 1 0 0
12193 0 2 0 0.45048498501290807 24.82517753692026 8.969427104094319 1 0 0
676 0 2 0 4.524045638580468 24.892534650156783 14.999051236997538 0 0 0
12195 0 1 0 0.8745787468604903 24.305760775030336 8.265163177844466 1 0 0
12434 0 1 0 3.0761120604023553 25.817403750042054 14.004754726147853 1 0 0
11899 0 2 0 4.127160487434403 23.5734790120989 10.932846545467102 1 0 0
12379 0 2 0 2.9728613562541266 26.39995564163463 10.826483847317965 1 0 0
12435 0 1 0 1.5765417464350426 25.56870101258607 13.540918650732864 1 0 0
11901 0 1 0 3.5495673260221827 23.0467063903865 11.493723581707325 1 0 0
12433 0 2 0 2.2371272270830445 26.254877299531067 13.598528926962093 1 0 0
12391 0 2 0 0.1783978443942765 24.514841904919535 12.103629976768044 1 0 0
56 0 1 0 0.7655809602035611 27.19242681499137 8.685980024409815 0 0 0
12381 0 1 0 2.390489430790614 26.980758586101498 10.303191928804809 1 0 0
11900 0 1 0 3.831614563702011 24.503492699356087 11.015808500077904 1 0 0
12380 0 1 0 2.680470184159307 26.45737385700241 11.792899246470721 1 0 0
12284 0 1 0 0.6435352435269825 19.708623816190034 13.63335010640438 1 0 0
12393 0 1 0 0.4496346170667283 24.61098287137155 11.163902485717918 1 0 0
12043 0 2 0 0.6965904730439332 19.379784364389103 14.970937567018275 1 0 0
11765 0 1 0 3.6450906279694317 18.64703585103146 12.771305986185714 1 0 0
678 0 1 0 4.168481337730206 23.966816150525315 15.028985825630206 0 0 0
12475 0 2 0 3.4506487657599005 20.752286179881487 19.63114536537964 1 0 0
12477 0 1 0 4.168590911129589 21.327290091026146 19.33217661443831 1 0 0
12254 0 1 0 4.041730897853088 18.582989435561405 15.722184689972275 1 0 0
12476 0 1 0 3.857165767282201 19.857758387899338 19.527240330964755 1 0 0
12044 0 1 0 1.592324009457484 19.18121866450945 15.206902132854857 1 0 0
12351 0 1 0 0.5861831293481983 21.63365057344046 17.45729215194589 1 0 0
2081 0 1 0 2.695185386096076 20.995751624465026 21.45797020505812 0 1 0
11972 0 1 0 2.2152975801122 19.022135401421583 18.772229957196572 1 0 0
737 0 1 0 0.340070849173153 27.319914837503866 17.576338326558616 0 0 0
12349 0 2 0 1.4018104948269938 22.112692571390888 17.136516159735802 1 0 0
12350 0 1 0 2.1306408123626066 21.461875081489683 17.357964419853353 1 0 0
688 0 2 0 2.3302957755423104 18.80369330003941 22.607956553599383 0 0 0
2080 0 2 0 2.411579351375378 21.611489486557925 22.165008479186717 0 1 0
515 0 1 0 3.3465314061507283 23.246118520016037 21.237787230114762 0 0 0
12057 0 1 0 0.9881160251071627 25.09459504326913 16.13741185362043 1 0 0
514 0 2 0 3.6248612909898448 24.214313215824838 21.197496997555216 0 0 0
696 0 1 0 4.052663317630643 25.863972668843978 18.399013036659262 0 0 0
12055 0 2 0 0.6508139587489423 24.309236295825503 15.72510721686078 1 0 0
751 0 2 0 0.14826492952899345 27.41171323925846 19.616222852740915 0 0 0
694 0 2 0 3.3166308521482115 25.99571111394536 19.065238920418746 0 0 0
12056 0 1 0 1.1263847768812811 23.47703283023382 16.147958334771793 1 0 0
753 0 1 0 0.8200970958846557 27.167525044197113 20.315236832192785 0 0 0
12045 0 1 0 0.16695362803921046 18.57746931758038 15.282719154151577 1 0 0
177 0 1 0 3.653525870649227 18.550363714479786 21.40132344522468 0 0 0
516 0 1 0 4.513120052941166 24.07473444625057 21.483231278848702 0 0 0
12676 0 2 0 1.894721271700707 27.64265820324663 22.036894261872103 1 0 0
11781 0 1 0 0.04024998839720695 23.936177779877372 19.837274644336013 1 0 0
11779 0 2 0 0.7033200060009521 23.200559135212167 20.008995042430115 1 0 0
695 0 1 0 3.3703717284253165 25.236323137744535 19.66137372715294 0 0 0
11780 0 1 0 1.0712049157662102 22.96557657076645 19.17752869682827 1 0 0
738 0 1 0 1.6299010131951857 26.497948634178282 17.8912055184405 0 0 0
736 0 2 0 1.130106303270539 26.905263694291943 17.14801070675967 0 0 0
11831 0 1 0 0.63822089501778 27.54140216058446 15.148314780208247 1 0 0
657 0 1 0 4.377957240321782 27.204553604275194 20.016739990235788 0 0 0
536 0 1 0 3.854349863204616 25.96626649178478 22.47394513945056 0 0 0
12619 0 2 0 2.6602577449604157 19.28889527761745 25.41989536010846 1 0 0
12469 0 2 0 1.8668923255278949 21.72853778194711 26.56355526257463 1 0 0
12471 0 1 0 1.9349225282549194 20.83220657042484 26.27309229612982 1 0 0
609 0 1 0 2.565530487998744 19.594505327915535 27.877380711348184 0 0 0
535 0 2 0 4.403627439596165 26.129437363790988 23.2771350378714 0 0 0
12621 0 1 0 1.9072084862218428 18.672908405434775 25.44643829407043 1 0 0
882 0 1 0 1.33567944971676 22.16070512625903 23.42519465294341 0 0 0
12465 0 1 0 1.9711674239165313 22.68065257111518 29.47521356565037 1 0 0
12464 0 1 0 1.5024402644338395 22.28192401389824 28.115467276174275 1 0 0
12463 0 2 0 1.0955427812899985 22.554181224295625 28.986111113595094 1 0 0
11790 0 1 0 4.642625218194462 21.11810947868272 28.617571345429724 1 0 0
11969 0 1 0 0.06147738927325301 26.4689423872737 25.42311006916066 1 0 0
11968 0 2 0 0.5760635845772534 26.37234186648161 26.285940863586077 1 0 0
11889 0 1 0 0.32559706121647336 21.058952172204606 29.7003552792129 1 0 0
607 0 2 0 2.803886923620293 19.35506117135658 28.78880038542331 0 0 0
12620 0 1 0 3.488266653971776 18.87077109850399 25.710031141250283 1 0 0
11789 0 1 0 4.611192731615099 22.570475877788528 29.010322915525435 1 0 0
12458 0 1 0 3.97941461900341 24.767400065094996 29.746418377811704 1 0 0
12470 0 1 0 1.4661525067396568 22.137516098472272 25.701034640194177 1 0 0
12809 0 1 0 3.9218541861732352 27.41907335786625 28.85366648738538 1 0 0
880 0 2 0 0.9121027274672933 22.725201205124566 24.164085666148985 0 0 0
608 0 1 0 2.0638012171786633 19.752090013262908 29.333227479217133 0 0 0
11970 0 1 0 1.287781098154402 25.777034952768766 26.034613816014097 1 0 0
537 0 1 0 4.255868113578255 27.120147905866876 23.306780248403328 0 0 0
2784 0 1 0 3.3611726413844045 24.0634799938909 25.491133771266487 0 0 0
12808 0 2 0 4.641097252284683 26.72063270069413 28.83475319701364 1 0 0
881 0 1 0 1.3920678913687563 23.548171330491442 24.139285439030804 0 0 0
2782 0 2 0 2.752997626718841 24.80126266949156 25.21872383609667 0 0 0
2783 0 1 0 3.2391974363172036 25.367837367258286 24.583414289249824 0 0 0
858 0 1 0 0.4150027229167486 27.663142526413086 27.430957924081945 0 0 0
689 0 1 0 2.43882042133813 19.440728987255476 23.333580636746174 0 0 0
2082 0 1 0 3.23655946338551 21.437365668695954 22.763224344783332 0 1 0
12678 0 1 0 1.6536586849815123 27.29319746206108 22.91244315798133 1 0 0
466 0 2 0 1.168333579976156 18.996789412273415 34.12819460308213 0 0 0
649 0 2 0 1.3850568850830072 24.905100137795696 31.063289136010646 0 0 0
12261 0 1 0 3.371611506439812 21.04899981655946 31.1978853161174 1 0 0
2625 0 1 0 3.683788425374165 20.27396814210177 33.688044979470014 0 0 0
471 0 1 0 0.9699803985694014 22.16173099130189 32.74025159770815 0 0 0
11888 0 1 0 0.8318490109190486 20.65603829354639 31.119222423103 1 0 0
2624 0 1 0 4.241612529189218 18.822513772994693 34.012662880384575 0 0 0
650 0 1 0 0.6873741731840614 24.460849674637934 31.594649107466875 0 0 0
469 0 2 0 1.5908168047344249 21.47716806435626 32.45164043493571 0 0 0
470 0 1 0 1.5382118860650766 20.681051091046257 33.01955641343979 0 0 0
12259 0 2 0 4.093477597744137 20.528406480498855 31.45284600742529 1 0 0
12459 0 1 0 2.906163438521015 24.05364778569597 30.61351501499861 1 0 0
651 0 1 0 1.5420219529837358 25.803457481955984 31.37417977176991 0 0 0
468 0 1 0 1.6768115802410892 19.038092522484025 34.947998111134574 0 0 0
12641 0 1 0 4.769282951103576 24.89330166093958 34.07403737233841 1 0 0
473 0 1 0 4.440067519529892 18.876822815966936 30.858697562091283 0 0 0
2623 0 2 0 4.028909038043773 19.71606125571237 34.3621532762488 0 0 0
11887 0 2 0 0.35024707718299214 20.254203365754826 30.345819637179304 1 0 0
12457 0 2 0 3.845660815023407 24.00399137109735 30.33097035932623 1 0 0
860 0 1 0 3.6674060760506793 27.704620424006137 34.827684768128705 0 0 0
12424 0 2 0 2.69574789544422 30.477090142653328 9.682752636713973 1 0 0
12412 0 2 0 0.657272142326537 31.344234118413205 11.286872823059548 1 0 0
12273 0 1 0 3.642881298968916 28.651674997901104 12.32063134892355 1 0 0
12750 0 1 0 1.9088380296387573 32.03686602532452 12.14957632859901 1 0 0
12271 0 2 0 3.2999663793257583 29.55924471762172 12.346335440127259 1 0 0
12741 0 1 0 4.648196404245908 31.541984714585492 12.789350268170102 1 0 0
12413 0 1 0 1.38320062281385 31.22503653418541 10.582251172076708 1 0 0
12224 0 1 0 4.082241560125372 32.36782848259016 9.670897235345679 1 0 0
12425 0 1 0 2.744135266125886 29.708072284673403 9.179676411959736 1 0 0
917 0 1 0 1.6504105481781324 35.00614411980977 9.38436736745994 0 0 0
12584 0 1 0 2.290085922003379 36.008848201181756 11.38609811838894 1 0 0
12223 0 2 0 4.4125226243125315 33.275686351813484 9.534510975744409 1 0 0
916 0 2 0 2.4944568078632097 35.46729882687726 9.576056769160049 0 0 0
12583 0 2 0 2.461849220396888 35.94052204363359 12.330980599110443 1 0 0
918 0 1 0 3.1579185152419273 34.79603428171888 9.38627340535296 0 0 0
12182 0 1 0 0.4006663515916875 31.94456391822286 13.929430700974482 1 0 0
12748 0 2 0 2.448497361127564 32.71874539812135 12.536982822810605 1 0 0
55 0 2 0 1.054137973675042 28.055648469780436 9.056027535826837 0 0 0
12749 0 1 0 2.1981964937752774 33.55814117337967 12.164979816999885 1 0 0
12272 0 1 0 2.6657072987090125 29.555615404795624 13.194154520554779 1 0 0
57 0 1 0 0.304639704795754 28.334919635368987 9.580472926893329 0 0 0
11878 0 2 0 1.4716598553477949 30.310351281396386 14.660660732291579 1 0 0
12426 0 1 0 3.0396211072245136 30.19875378069545 10.550942792731826 1 0 0
11879 0 1 0 0.8961074157555099 29.518194900139946 14.669353533108763 1 0 0
12585 0 1 0 3.2817642415682626 36.50898726937843 12.416870700938947 1 0 0
1094 0 1 0 2.719045106590528 33.51337629020238 14.203488362323121 0 0 0
1459 0 2 0 0.003603109780243585 34.23832795393457 9.666947315736595 0 0 0
12414 0 1 0 0.36715679211684576 30.433836005234216 11.481408751888015 1 0 0
12225 0 1 0 4.743725725588754 33.54518374069531 10.388568175746288 1 0 0
697 0 2 0 2.6226950515221117 30.26941143269718 22.32491680274458 0 0 0
12274 0 2 0 2.796918887995675 30.13697423031243 17.256221336549196 1 0 0
699 0 1 0 2.530316415184715 30.614256481515774 21.367028121273375 0 0 0
12589 0 2 0 2.9966069544132186 31.311019750163016 19.81191501343447 1 0 0
12276 0 1 0 3.656112273619955 29.775799303440525 17.52551995645247 1 0 0
12275 0 1 0 2.1460594989961717 29.410302968344705 17.366925556405942 1 0 0
12590 0 1 0 3.9449072419620554 31.302092951583194 19.68031235290964 1 0 0
1073 0 1 0 3.7612755708906684 35.872870355724515 18.658606413033326 0 0 0
12297 0 1 0 1.7004840844287936 34.214616073516474 19.854550624706537 1 0 0
1001 0 1 0 4.066261998659809 33.13007853388675 16.273739713378994 0 0 0
12296 0 1 0 1.2154469111854422 32.926659674294534 20.429650948238958 1 0 0
1088 0 1 0 3.477580108450343 35.670420131115556 15.368893723395423 0 0 0
1074 0 1 0 2.1287395679469148 35.86243720507184 18.290923925690265 0 0 0
1087 0 2 0 3.9587340432475844 36.450979082233786 15.713820129055948 0 0 0
12795 0 1 0 2.074675247782324 36.62369768632299 20.352641364476128 1 0 0
12677 0 1 0 2.2903230583471546 28.51183647175572 22.194556619799965 1 0 0
12591 0 1 0 2.571993610855287 31.16033551526283 18.917096371695987 1 0 0
12295 0 2 0 0.8923257672756642 33.827239242730236 20.28209592960114 1 0 0
11880 0 1 0 2.0204756193454414 30.19819257602378 15.475768211028598 1 0 0
1072 0 2 0 2.8104964186036074 35.75995490700317 18.987981766312505 0 0 0
1093 0 2 0 2.7991618656253285 33.72072177748102 15.152749443754582 0 0 0
1095 0 1 0 1.904419831613386 33.91363626413736 15.493458593228532 0 0 0
12567 0 1 0 0.40282212982924526 35.71625521423562 21.929048154170182 1 0 0