(written by ASE)

14040 atoms
2 atom types

0.0      77.003999999999991  xlo xhi
0.0      74.099999999999994  ylo yhi
0.0                      75  zlo zhi

Masses

     1      1.0079999997406976 # H
     2      15.998999995884349 # O

Atoms # full

     1   0   2   0.0      10.776999999999999      5.7030000000000003                  29.988
     2   0   1   0.0      11.444000000000001      6.3979999999999997      30.248999999999999
     3   0   1   0.0      10.037000000000001      6.1970000000000001                  29.654
     4   0   2   0.0      6.1029999999999998      5.6779999999999999      34.646000000000001
     5   0   1   0.0      6.5149999999999997      5.8280000000000003      33.755000000000003
     6   0   1   0.0      6.1929999999999996      4.7249999999999996      34.786000000000001
     7   0   2   0.0      6.6440000000000001      10.103999999999999      32.084000000000003
     8   0   1   0.0      5.7709999999999999                  10.199      32.496000000000002
     9   0   1   0.0                   6.907                  11.023      31.832999999999998
    10   0   2   0.0                  11.257      2.1379999999999999      31.547000000000001
    11   0   1   0.0                  10.689      2.6709999999999998                  32.122
    12   0   1   0.0      11.561999999999999      1.3979999999999999      32.164999999999999
    13   0   2   0.0      8.5609999999999999                  11.244      12.890000000000001
    14   0   1   0.0      9.1590000000000007                  11.888                  12.488
    15   0   1   0.0      9.0340000000000007                  10.455                  13.198
    16   0   2   0.0      9.2940000000000005      10.622999999999999      25.443000000000001
    17   0   1   0.0      8.3070000000000004                  10.564      25.312000000000001
    18   0   1   0.0      9.5570000000000004      10.641999999999999                  24.477
    19   0   2   0.0                   2.476      2.2919999999999998      25.265999999999998
    20   0   1   0.0                   1.921      1.8220000000000001      24.559000000000001
    21   0   1   0.0      1.8009999999999999      2.6349999999999998      25.873999999999999
    22   0   2   0.0      3.7719999999999998      6.6609999999999996      35.549999999999997
    23   0   1   0.0      4.5709999999999997      6.4100000000000001      35.014000000000003
    24   0   1   0.0      3.9590000000000001      6.8789999999999996      36.490000000000002
    25   0   2   0.0      8.3019999999999996      5.3620000000000001                  25.962
    26   0   1   0.0      9.0570000000000004      5.9260000000000002      25.824999999999999
    27   0   1   0.0      7.7990000000000004                   5.702      25.213000000000001
    28   0   2   0.0      1.4319999999999999      4.2750000000000004                  27.084
    29   0   1   0.0                   1.915      4.1130000000000004      27.917999999999999
    30   0   1   0.0     0.45900000000000002      4.2400000000000002      27.298999999999999
    31   0   2   0.0      4.2450000000000001    -0.35299999999999998      12.239000000000001
    32   0   1   0.0      5.0869999999999997                   0.159                  12.161
    33   0   1   0.0      3.6070000000000002                   0.373                  12.154
    34   0   2   0.0                   8.218      12.608000000000001      31.591000000000001
    35   0   1   0.0      9.0760000000000005      12.343999999999999      32.000999999999998
    36   0   1   0.0      8.3290000000000006      12.391999999999999                  30.634
    37   0   2   0.0    0.074999999999999997                   7.282      30.786000000000001
    38   0   1   0.0     0.77900000000000003      6.6059999999999999      30.719000000000001
    39   0   1   0.0     0.32700000000000001      8.0239999999999991      30.216000000000001
    40   0   2   0.0      5.9089999999999998      10.279999999999999      27.719999999999999
    41   0   1   0.0      5.2030000000000003                  10.911      27.835999999999999
    42   0   1   0.0      6.6710000000000003      10.792999999999999                  28.195
    43   0   2   0.0      4.1189999999999998      6.5949999999999998                  22.195
    44   0   1   0.0      4.3869999999999996      6.1829999999999998                  21.349
    45   0   1   0.0                   3.274      6.1130000000000004                  22.395
    46   0   2   0.0      8.2230000000000008      7.0830000000000002                  28.387
    47   0   1   0.0      7.3920000000000003      7.4699999999999998      28.826000000000001
    48   0   1   0.0      8.0150000000000006      6.7770000000000001      27.498000000000001
    49   0   2   0.0                    1.01      7.9329999999999998                  33.759
    50   0   1   0.0                   1.093      7.5830000000000002      32.860999999999997
    51   0   1   0.0      1.6020000000000001      7.3730000000000002      34.314999999999998
    52   0   2   0.0                   1.927      4.5549999999999997      22.521999999999998
    53   0   1   0.0                    1.25      4.1289999999999996      21.957999999999998
    54   0   1   0.0      2.3370000000000002                   3.879      23.074000000000002
    55   0   2   0.0      5.8339999999999996      8.8520000000000003                    12.4
    56   0   1   0.0      5.7569999999999997      9.3569999999999993      11.563000000000001
    57   0   1   0.0      6.8099999999999996      8.7729999999999997                  12.663
    58   0   2   0.0      11.343999999999999      3.4279999999999999      34.854999999999997
    59   0   1   0.0                  11.038      4.0890000000000004      34.206000000000003
    60   0   1   0.0                  12.215      3.0449999999999999      34.465000000000003
    61   0   2   0.0      2.1960000000000002                   0.094                  14.411
    62   0   1   0.0                   2.496    -0.38800000000000001                  13.651
    63   0   1   0.0      2.7669999999999999                   0.749      14.874000000000001
    64   0   2   0.0      4.7960000000000003                  10.398      14.816000000000001
    65   0   1   0.0      4.4790000000000001      11.095000000000001      14.271000000000001
    66   0   1   0.0      5.2859999999999996      9.7769999999999992      14.202999999999999
    67   0   2   0.0                  10.824      3.4660000000000002                  18.747
    68   0   1   0.0                  11.346                   2.734                   18.25
    69   0   1   0.0      9.8819999999999997      3.0710000000000002                  18.927
    70   0   2   0.0      8.6080000000000005                   3.085                  12.371
    71   0   1   0.0      8.9440000000000008      2.9510000000000001      13.268000000000001
    72   0   1   0.0      9.1449999999999996      2.4809999999999999      11.797000000000001
    73   0   2   0.0      4.8120000000000003                   1.673      30.173999999999999
    74   0   1   0.0      4.7140000000000004      2.5339999999999998      29.707000000000001
    75   0   1   0.0      4.2699999999999996      1.6240000000000001      31.021000000000001
    76   0   2   0.0                   0.999      1.0629999999999999      27.873999999999999
    77   0   1   0.0      1.5449999999999999     0.54400000000000004                  28.509
    78   0   1   0.0                   0.217      1.2470000000000001      28.370999999999999
    79   0   2   0.0      7.2510000000000003                   2.726      31.763000000000002
    80   0   1   0.0      6.3899999999999997                   2.581                  31.256
    81   0   1   0.0      7.7110000000000003                   1.899                  31.686
    82   0   2   0.0      2.4209999999999998      5.5149999999999997                  31.706
    83   0   1   0.0      3.3100000000000001      5.7530000000000001      31.370000000000001
    84   0   1   0.0      2.5640000000000001      5.4480000000000004      32.723999999999997
    85   0   2   0.0      2.9990000000000001      2.4239999999999999      12.335000000000001
    86   0   1   0.0      3.9359999999999999                   2.681      12.092000000000001
    87   0   1   0.0      2.2610000000000001      2.9350000000000001      11.898999999999999
    88   0   2   0.0      12.619999999999999                  11.512      26.190999999999999
    89   0   1   0.0      12.287000000000001                  10.708      26.696999999999999
    90   0   1   0.0      13.308999999999999                  11.913      26.722999999999999
    91   0   2   0.0      3.8100000000000001      6.8109999999999999      14.771000000000001
    92   0   1   0.0      4.2430000000000003                       7                  13.904
    93   0   1   0.0      3.4620000000000002      5.8970000000000002      14.757999999999999
    94   0   2   0.0    0.082000000000000003      11.257999999999999                   15.84
    95   0   1   0.0     0.80500000000000005                  11.789                  15.391
    96   0   1   0.0     0.48299999999999998      10.798999999999999      16.640999999999998
    97   0   2   0.0                  11.744      4.4390000000000001      27.457000000000001
    98   0   1   0.0      11.170999999999999                   3.944      26.795000000000002
    99   0   1   0.0                  11.282      4.6289999999999996      28.268999999999998
   100   0   2   0.0     0.75900000000000001                   0.875      23.571000000000002
   101   0   1   0.0    -0.18099999999999999      1.1879999999999999      23.821999999999999
   102   0   1   0.0     0.90400000000000003     0.13200000000000001                  24.206
   103   0   2   0.0      9.8379999999999992                   1.089      21.460999999999999
   104   0   1   0.0      9.2769999999999992                   1.615      20.841999999999999
   105   0   1   0.0      10.242000000000001      1.6699999999999999      22.143999999999998
   106   0   2   0.0                   5.694      7.2720000000000002                  25.067
   107   0   1   0.0      5.9379999999999997      8.1920000000000002                   24.84
   108   0   1   0.0      5.1630000000000003      7.0010000000000003                  24.302
   109   0   2   0.0      7.1219999999999999                   2.323                  23.564
   110   0   1   0.0                   6.327                   2.923                  23.657
   111   0   1   0.0      7.8230000000000004      2.9489999999999998                  23.372
   112   0   2   0.0                  11.571                   7.819      12.186999999999999
   113   0   1   0.0                  12.065                   7.298                  12.917
   114   0   1   0.0      10.787000000000001      7.1890000000000001      11.973000000000001
   115   0   2   0.0      9.4559999999999995      2.6429999999999998                   14.91
   116   0   1   0.0      8.9550000000000001                    2.04                  15.493
   117   0   1   0.0      9.3529999999999998      3.5230000000000001      15.423999999999999
   118   0   2   0.0                   1.782      1.6240000000000001      21.149000000000001
   119   0   1   0.0                   1.738     0.93500000000000005                  20.419
   120   0   1   0.0      1.3109999999999999                   1.089      21.888999999999999
   121   0   2   0.0                   1.889      10.404999999999999      35.063000000000002
   122   0   1   0.0                    1.25                  11.048      34.762999999999998
   123   0   1   0.0                   1.478      9.5869999999999997      34.719000000000001
   124   0   2   0.0                  11.237      2.3149999999999999      23.431000000000001
   125   0   1   0.0                  11.638      3.1429999999999998      23.030999999999999
   126   0   1   0.0                  10.811      2.6800000000000002      24.234999999999999
   127   0   2   0.0      3.4140000000000001      5.7389999999999999      17.611000000000001
   128   0   1   0.0      2.6389999999999998      5.5179999999999998      18.242000000000001
   129   0   1   0.0      3.8380000000000001      6.6150000000000002      17.733000000000001
   130   0   2   0.0                   6.383                  11.221      22.795000000000002
   131   0   1   0.0      7.2889999999999997                  10.911      22.515000000000001
   132   0   1   0.0      6.3440000000000003                  12.182      22.850999999999999
   133   0   2   0.0                  10.727      5.1589999999999998      12.223000000000001
   134   0   1   0.0      10.840999999999999      5.1550000000000002                  13.169
   135   0   1   0.0      9.8420000000000005                   4.883                  12.009
   136   0   2   0.0      1.5680000000000001      5.9409999999999998                  12.154
   137   0   1   0.0      1.4199999999999999      5.6200000000000001      13.069000000000001
   138   0   1   0.0     0.84399999999999997      5.7130000000000001                  11.616
   139   0   2   0.0                   11.84      1.3089999999999999      16.917000000000002
   140   0   1   0.0      11.175000000000001                   1.605                  16.294
   141   0   1   0.0                  12.157                   0.378      16.684999999999999
   142   0   2   0.0      3.5129999999999999                  11.763      28.283000000000001
   143   0   1   0.0                   3.609                  11.933      27.292999999999999
   144   0   1   0.0      3.9100000000000001      12.550000000000001                   28.75
   145   0   2   0.0                   3.226                   5.532                  25.561
   146   0   1   0.0      2.4319999999999999      5.0970000000000004      26.065999999999999
   147   0   1   0.0      3.7269999999999999      5.9029999999999996      26.271999999999998
   148   0   2   0.0      9.8469999999999995      4.9539999999999997      16.501000000000001
   149   0   1   0.0                  10.061      4.6230000000000002                  17.395
   150   0   1   0.0      9.0679999999999996      5.5810000000000004      16.472000000000001
   151   0   2   0.0      8.9870000000000001                   9.048                  32.634
   152   0   1   0.0      9.3179999999999996      9.0570000000000004      31.690000000000001
   153   0   1   0.0      8.0470000000000006      9.4420000000000002      32.683999999999997
   154   0   2   0.0                  11.096      9.9120000000000008                    14.1
   155   0   1   0.0      11.869999999999999                  10.353                  14.528
   156   0   1   0.0                  11.417      9.3000000000000007                  13.448
   157   0   2   0.0      9.8789999999999996      7.9989999999999997      25.789999999999999
   158   0   1   0.0      10.826000000000001      7.8940000000000001      26.103999999999999
   159   0   1   0.0      9.6500000000000004      8.9440000000000008                  25.927
   160   0   2   0.0                   1.157                  12.231      30.678999999999998
   161   0   1   0.0                   1.708      13.048999999999999                  30.491
   162   0   1   0.0      1.7849999999999999                  11.458                  30.564
   163   0   2   0.0      2.4769999999999999      10.423999999999999      24.236000000000001
   164   0   1   0.0      2.2999999999999998      9.4529999999999994      24.385000000000002
   165   0   1   0.0      3.1150000000000002                  10.414      23.492000000000001
   166   0   2   0.0      5.8109999999999999      8.6010000000000009      29.870000000000001
   167   0   1   0.0      5.6139999999999999      9.2479999999999993      29.143999999999998
   168   0   1   0.0      6.3029999999999999      9.1210000000000004                  30.625
   169   0   2   0.0                  11.885      5.0270000000000001      14.688000000000001
   170   0   1   0.0      12.452999999999999      5.7850000000000001      14.499000000000001
   171   0   1   0.0      11.157999999999999      5.2409999999999997                  15.305
   172   0   2   0.0                  10.177                   3.161      25.739000000000001
   173   0   1   0.0      9.3149999999999995                   3.484      25.501000000000001
   174   0   1   0.0      10.058999999999999                   2.298                  26.198
   175   0   2   0.0                   4.391                   2.157                   21.32
   176   0   1   0.0      4.7110000000000003      2.6579999999999999                  22.105
   177   0   1   0.0                   3.363      2.0169999999999999      21.547999999999998
   178   0   2   0.0                    0.44      12.662000000000001      12.039999999999999
   179   0   1   0.0                    0.63      11.696999999999999      12.202999999999999
   180   0   1   0.0     0.84699999999999998                  13.125      12.781000000000001
   181   0   2   0.0      9.0980000000000008                  10.574      22.222999999999999
   182   0   1   0.0      9.4260000000000002                   11.44      21.876000000000001
   183   0   1   0.0      9.0440000000000005      9.9169999999999998      21.489999999999998
   184   0   2   0.0      7.9219999999999997                  11.029      19.466999999999999
   185   0   1   0.0      7.2510000000000003                  11.638                  19.756
   186   0   1   0.0      8.8369999999999997                   11.43                  19.544
   187   0   2   0.0      12.239000000000001                   10.02                  22.849
   188   0   1   0.0      11.409000000000001                   10.52                  22.956
   189   0   1   0.0                  12.779                  10.273      23.632999999999999
   190   0   2   0.0                    7.71      6.6420000000000003                  16.262
   191   0   1   0.0                   7.617      7.1360000000000001      17.123000000000001
   192   0   1   0.0      8.0410000000000004      7.3129999999999997      15.638999999999999
   193   0   2   0.0      3.8159999999999998                  10.772                  21.901
   194   0   1   0.0      3.5739999999999998      11.531000000000001      21.309000000000001
   195   0   1   0.0      4.8109999999999999      10.590999999999999      21.841999999999999
   196   0   2   0.0      4.4359999999999999      4.3289999999999997      28.667999999999999
   197   0   1   0.0      4.7530000000000001      5.0579999999999998      29.213999999999999
   198   0   1   0.0      5.2210000000000001      3.9569999999999999      28.149000000000001
   199   0   2   0.0      4.6120000000000001      3.4820000000000002                  23.971
   200   0   1   0.0      4.4790000000000001                   4.391                  24.288
   201   0   1   0.0                   3.964                   3.032      24.527000000000001
   202   0   2   0.0                   7.702      5.3630000000000004                  31.962
   203   0   1   0.0      7.4809999999999999                   4.383      31.879999999999999
   204   0   1   0.0      8.5310000000000006                   5.399      32.554000000000002
   205   0   2   0.0      6.2270000000000003      4.1849999999999996      16.547000000000001
   206   0   1   0.0      6.3940000000000001      5.0730000000000004                  16.154
   207   0   1   0.0      5.2160000000000002      4.2569999999999997                  16.831
   208   0   2   0.0      1.3740000000000001                   3.024      30.981000000000002
   209   0   1   0.0     0.41299999999999998      2.9910000000000001      30.856000000000002
   210   0   1   0.0      1.6240000000000001      3.9340000000000002                  31.081
   211   0   2   0.0                  10.448                   8.891      16.931999999999999
   212   0   1   0.0      9.5050000000000008      9.2919999999999998      16.835999999999999
   213   0   1   0.0      10.720000000000001      9.0990000000000002      16.013000000000002
   214   0   2   0.0                  11.705      10.646000000000001      29.027999999999999
   215   0   1   0.0      11.409000000000001                  11.564                   29.27
   216   0   1   0.0                  12.664                  10.587      29.120000000000001
   217   0   2   0.0      10.430999999999999     0.63300000000000001      26.576000000000001
   218   0   1   0.0                  11.381     0.32500000000000001      26.393000000000001
   219   0   1   0.0      9.9399999999999995   -0.086999999999999994      26.103999999999999
   220   0   2   0.0      4.4260000000000002      8.2509999999999994      18.411999999999999
   221   0   1   0.0      3.7970000000000002      8.3810000000000002                  19.154
   222   0   1   0.0                   3.863      8.7100000000000009                   17.73
   223   0   2   0.0                  10.173      11.766999999999999      33.310000000000002
   224   0   1   0.0      9.8230000000000004                  10.868      33.231999999999999
   225   0   1   0.0      11.148999999999999                  11.686      33.293999999999997
   226   0   2   0.0      9.3610000000000007                   3.452      28.640999999999998
   227   0   1   0.0      8.4589999999999996      3.4260000000000002      28.364000000000001
   228   0   1   0.0      9.2870000000000008      4.0410000000000004      29.411000000000001
   229   0   2   0.0                   4.859     0.32100000000000001      16.885999999999999
   230   0   1   0.0      5.0739999999999998                   1.034      16.242999999999999
   231   0   1   0.0      5.2939999999999996                   -0.44      16.510000000000002
   232   0   2   0.0                   3.036                  10.266      30.472999999999999
   233   0   1   0.0      3.8540000000000001                  10.528                  30.032
   234   0   1   0.0      3.3300000000000001      10.071999999999999      31.411000000000001
   235   0   2   0.0                   1.165      10.141999999999999      17.940999999999999
   236   0   1   0.0     0.39800000000000002      9.6609999999999996      18.388000000000002
   237   0   1   0.0                   1.772      9.4740000000000002      17.545999999999999
   238   0   2   0.0      3.9249999999999998     0.16600000000000001                  25.706
   239   0   1   0.0      3.3090000000000002     0.93600000000000005      25.606000000000002
   240   0   1   0.0      3.5539999999999998    -0.49299999999999999                  25.099
   241   0   2   0.0      1.0589999999999999      9.1690000000000005      28.821000000000002
   242   0   1   0.0     0.79900000000000004      8.9510000000000005                  27.927
   243   0   1   0.0      2.0379999999999998      9.3369999999999997      28.859999999999999
   244   0   2   0.0      2.2589999999999999     0.10100000000000001                  18.706
   245   0   1   0.0      2.8650000000000002     0.48299999999999998                  18.081
   246   0   1   0.0      1.7609999999999999    -0.66700000000000004      18.335000000000001
   247   0   2   0.0      8.4489999999999998      7.8230000000000004                  13.698
   248   0   1   0.0      9.3689999999999998      8.0129999999999999      13.609999999999999
   249   0   1   0.0      8.2080000000000002      7.0039999999999996                  13.368
   250   0   2   0.0                   1.393                   2.363      33.603999999999999
   251   0   1   0.0                    1.47      2.5880000000000001                  32.698
   252   0   1   0.0                   1.716      3.0619999999999998      34.154000000000003
   253   0   2   0.0      8.4550000000000001      4.6980000000000004      22.713999999999999
   254   0   1   0.0                   9.032      5.4459999999999997      23.024999999999999
   255   0   1   0.0      8.3350000000000009      4.7770000000000001      21.745999999999999
   256   0   2   0.0      1.4810000000000001      9.8339999999999996                   12.41
   257   0   1   0.0      1.0129999999999999      9.4649999999999999      13.180999999999999
   258   0   1   0.0      1.3979999999999999      9.2970000000000006                  11.629
   259   0   2   0.0      6.6909999999999998      3.1320000000000001      27.181999999999999
   260   0   1   0.0                   7.069      3.7890000000000001      26.501999999999999
   261   0   1   0.0      6.7949999999999999      2.2330000000000001      26.841000000000001
   262   0   2   0.0                   4.069                  10.641      33.179000000000002
   263   0   1   0.0      3.3690000000000002                  10.461      33.878999999999998
   264   0   1   0.0      4.0339999999999998                  11.628      33.101999999999997
   265   0   2   0.0      8.1170000000000009      11.281000000000001      28.998000000000001
   266   0   1   0.0      8.6170000000000009                  10.395      29.280000000000001
   267   0   1   0.0      8.5429999999999993      11.523999999999999      28.184000000000001
   268   0   2   0.0      2.4689999999999999      8.3520000000000003      20.701000000000001
   269   0   1   0.0      2.6230000000000002      9.2639999999999993                  20.994
   270   0   1   0.0      3.0840000000000001      7.8730000000000002      21.271000000000001
   271   0   2   0.0      5.1580000000000004      6.1660000000000004                  30.805
   272   0   1   0.0      6.0579999999999998      5.8659999999999997      30.995000000000001
   273   0   1   0.0      5.3019999999999996      7.0780000000000003      30.501000000000001
   274   0   2   0.0      7.7960000000000003      12.489000000000001      15.218999999999999
   275   0   1   0.0                   7.593                  11.667                  15.714
   276   0   1   0.0      8.0429999999999993      12.117000000000001      14.305999999999999
   277   0   2   0.0                  11.776      9.1509999999999998      19.146999999999998
   278   0   1   0.0                  11.491                  10.042                  19.509
   279   0   1   0.0                  11.266      9.0700000000000003      18.292000000000002
   280   0   2   0.0     0.11799999999999999      7.5250000000000004      21.908000000000001
   281   0   1   0.0     0.79500000000000004      7.6829999999999998      21.216999999999999
   282   0   1   0.0    -0.20999999999999999      8.4410000000000007      22.109999999999999
   283   0   2   0.0                    0.25      12.048999999999999      33.331000000000003
   284   0   1   0.0     0.59099999999999997                  12.904      33.701999999999998
   285   0   1   0.0     0.57799999999999996      12.034000000000001      32.402999999999999
   286   0   2   0.0      7.2119999999999997      7.7839999999999998      18.585999999999999
   287   0   1   0.0      7.7229999999999999      8.0809999999999995                  19.343
   288   0   1   0.0      6.2569999999999997      8.0410000000000004      18.728000000000002
   289   0   2   0.0      2.1760000000000002      4.2859999999999996      14.545999999999999
   290   0   1   0.0      2.6150000000000002      3.5979999999999999      14.015000000000001
   291   0   1   0.0      2.1070000000000002      3.8439999999999999                  15.369
   292   0   2   0.0      6.8280000000000003     0.77300000000000002                  25.863
   293   0   1   0.0      5.8490000000000002     0.54400000000000004      25.859000000000002
   294   0   1   0.0      6.8209999999999997      1.4159999999999999      25.111999999999998
   295   0   2   0.0      9.5459999999999994      8.9830000000000005                  29.634
   296   0   1   0.0                  10.456      9.4130000000000003      29.437000000000001
   297   0   1   0.0      9.3439999999999994      8.3680000000000003      28.853999999999999
   298   0   2   0.0                   1.768      2.3580000000000001      16.548999999999999
   299   0   1   0.0     0.97099999999999997      1.9610000000000001      16.332000000000001
   300   0   1   0.0      1.5580000000000001                   2.669      17.516999999999999
   301   0   2   0.0      6.0359999999999996     0.92300000000000004      19.481000000000002
   302   0   1   0.0      5.5039999999999996     0.71799999999999997                   18.68
   303   0   1   0.0      5.4059999999999997      1.3540000000000001      20.082999999999998
   304   0   2   0.0                   5.859      2.1000000000000001                  14.977
   305   0   1   0.0      6.2199999999999998      2.8759999999999999                  15.481
   306   0   1   0.0      6.6109999999999998                    1.46                  15.025
   307   0   2   0.0                   1.282      3.6190000000000002      18.983000000000001
   308   0   1   0.0      1.6060000000000001                   3.371      19.844999999999999
   309   0   1   0.0      1.0760000000000001      4.5469999999999997                  19.052
   310   0   2   0.0                   1.865                   4.984      34.604999999999997
   311   0   1   0.0      1.0580000000000001      5.5110000000000001      34.350999999999999
   312   0   1   0.0      2.6389999999999998      5.4589999999999996      34.923999999999999
   313   0   2   0.0      7.5620000000000003      4.9450000000000003      19.818000000000001
   314   0   1   0.0      6.6269999999999998      4.8490000000000002      20.164000000000001
   315   0   1   0.0      7.4980000000000002      5.7039999999999997                   19.18
   316   0   2   0.0                  12.778      5.9809999999999999      18.181000000000001
   317   0   1   0.0      12.470000000000001      6.8259999999999996      18.449000000000002
   318   0   1   0.0      11.970000000000001      5.4930000000000003      18.050000000000001
   319   0   2   0.0      2.9990000000000001      9.1129999999999995      16.382000000000001