LAMMPS data file via write_data, version 4 Feb 2025, timestep = 500000, units = metal

14040 atoms
2 atom types

0 77.00399999999999 xlo xhi
0 74.1 ylo yhi
0 75 zlo zhi

Masses

1 1.007999999740698
2 15.99899999588435

Atoms # full

10719 0 1 0 2.9643311363863734 4.508638926939642 11.495463116849207 1 1 0
12156 0 1 0 2.0560550450322306 6.878411546175722 11.598762995396568 1 1 0
10717 0 2 0 2.320614255106415 4.120966193067548 12.067048143370044 1 1 0
10718 0 1 0 2.3895201490554285 3.183489081538749 11.722247784840455 1 1 0
12155 0 1 0 2.9017571262386155 7.483018487612798 10.46489866045807 1 1 0
12154 0 2 0 2.7709251606752985 7.501653718699674 11.44091060031457 1 1 0
11015 0 1 0 1.4520817993281383 3.842215462728135 13.878153060922047 1 1 0
11014 0 2 0 0.8158784359628938 4.114260850882392 14.501906243303084 1 1 0
10801 0 2 0 2.3122696957256683 0.15336516611058698 13.311199372471565 1 1 0
12560 0 1 0 3.3535639126334407 6.086680436595313 8.508814619343845 1 1 0
12998 0 1 0 4.086092917438553 6.527986648163792 12.190916621559397 1 1 0
1088 0 1 0 4.271990113405804 1.304630783153206 9.92253154695455 0 1 0
11267 0 1 0 0.852403233260004 5.108359642715658 11.611607495084495 1 1 0
12561 0 1 0 1.8238537612852093 6.366118221290553 8.558312130107025 1 1 0
10645 0 2 0 4.1085780613440805 4.520030815426512 9.722275708225055 1 1 0
10803 0 1 0 2.943755855378784 0.46568273837914625 14.042946593182911 1 1 0
1150 0 2 0 0.5019255392117558 8.679390015571139 14.279957235265599 0 1 0
12997 0 2 0 4.765472384227152 6.12710960750739 12.834572336044559 1 1 0
5988 0 1 0 1.9334727106948877 6.052205391161771 14.534147997622783 1 1 0
5986 0 2 0 2.5902247087636154 6.762554526736332 14.640004470560873 1 1 0
5987 0 1 0 3.410312033544683 6.327023013213997 14.38677426500973 1 1 0
12559 0 2 0 2.6914225664898592 6.789622058755555 8.613030433182718 1 1 0
1152 0 1 0 1.2933924426207069 8.1401074044437 14.366358453842997 0 1 0
11266 0 2 0 0.32270699052612356 5.917105879688794 11.501794755046822 1 1 0
10855 0 2 0 2.716074718319993 1.6293427345659948 10.812745430007084 1 1 0
10647 0 1 0 4.509309723322524 3.649429404468766 9.533478686645557 1 1 0
9860 0 1 0 0.36760331074992375 0.6127787597298125 13.053393922800993 1 1 0
10857 0 1 0 2.7550665088178996 1.0800702019096777 11.674726202538436 1 1 0
10856 0 1 0 1.8592786875270402 1.2802738002445553 10.504557392734698 1 1 0
9015 0 1 0 3.838268719090499 8.525237706644772 12.987675851094613 1 1 0
1671 0 1 0 4.597184767249623 3.255116352697328 14.851102223908537 0 1 0
8705 0 1 0 1.3133596900581228 8.736629928011663 11.316197126460269 1 1 0
10390 0 2 0 0.3578241396141942 0.2993011015473475 10.004508901225563 1 1 0
9013 0 2 0 4.272675197663164 9.190485304475555 13.45443588773111 1 1 0
9014 0 1 0 4.118083449520483 9.1611491296136 14.428162236911543 1 1 0
2293 0 2 0 4.297185344561797 0.48574057294963974 15.286006576199307 0 2 0
2294 0 1 0 3.9241618769840727 0.1725126659888475 16.117627847379378 0 2 0
13705 0 2 0 3.741647401859984 3.147982060087167 21.39144646011703 1 2 0
12404 0 1 0 2.7635890543264825 1.2323133892775535 18.67515451969726 1 1 0
7879 0 2 0 1.0120096875767766 8.69569596096115 21.879723987272595 1 1 0
1436 0 1 0 1.2299428823614325 5.2242664620792185 21.860024588253435 0 1 0
13706 0 1 0 3.338719442563623 2.723853091210442 20.57463376411073 1 2 0
12186 0 1 0 1.6553821823882646 5.231856533683758 17.99629348919232 1 1 0
12403 0 2 0 2.8751768696335223 2.133068928363799 18.92902669273589 1 1 0
6248 0 1 0 3.25901072758729 6.619653527619744 16.769465147134394 0 1 0
6672 0 1 0 0.023208863022244373 5.814359661250493 20.159343277618586 0 1 0
6249 0 1 0 3.7732933196754472 5.283967999953934 17.389852630781736 0 1 0
1669 0 2 0 4.382175345997064 3.2261997723950064 15.802701763770875 0 1 0
12405 0 1 0 2.39000909367772 2.6517342408167255 18.255114719564354 1 1 0
8827 0 2 0 0.2156295936010791 1.7937230746540305 21.481478299981408 1 1 0
13707 0 1 0 3.1760132578637 2.9847749774972065 22.17145658999444 1 2 0
8557 0 2 0 4.725289159914355 9.17727569516477 21.1100822519706 1 1 0
8829 0 1 0 0.6514310463860239 2.0532008889733038 20.68823357086053 1 1 0
11016 0 1 0 1.1447059866760638 4.0207532255675 15.413462427201756 1 1 0
13224 0 1 0 1.0216562096478596 8.705145609856809 16.869316899934745 1 1 0
12184 0 2 0 1.2857712569506619 4.310472499579687 17.997426384095206 1 1 0
6247 0 2 0 3.3917217247097504 6.158956803880361 17.602134984032585 0 1 0
2295 0 1 0 4.492280948372382 1.4396924825894717 15.597987478018783 0 2 0
1435 0 2 0 1.3783045002313952 6.058044765456233 21.412176632663932 0 1 0
1437 0 1 0 2.3117172283372227 6.125286605426558 21.0839474822075 0 1 0
12678 0 1 0 3.7055455098175814 7.920979794980172 20.482748508434224 1 1 0
12185 0 1 0 0.45135331424378133 4.432249738342234 18.483705500281893 1 1 0
8828 0 1 0 0.5034012360663548 0.8646692089090787 21.730196189829336 1 1 0
12677 0 1 0 3.5292629393641217 6.868612718346279 19.302813089910106 1 1 0
12676 0 2 0 3.5171692318462946 7.0001180632524775 20.25540655675848 1 1 0
7880 0 1 0 0.9667817464126166 7.6984876278834795 21.80316771065503 1 1 0
13222 0 2 0 1.7616041908980646 9.242853933913377 17.143807873129347 1 1 0
11043 0 1 0 3.3039935035670336 9.216666858113156 16.399568400872173 1 1 0
6058 0 2 0 1.6182480308349023 1.7472105474241804 27.10637078671419 1 1 0
6060 0 1 0 1.1324613739426608 2.507083065365681 26.84946104312988 1 1 0
6059 0 1 0 1.181992024755928 0.9871573492919876 26.560205851790233 1 1 0
10324 0 2 0 2.7477574557201963 2.2162855622357935 23.661561208441274 1 1 0
10253 0 1 0 3.5839236926278546 1.9803491948277847 27.087355579239013 1 1 0
10325 0 1 0 2.775741972195631 2.7062013097418656 24.47751591300813 1 1 0
10252 0 2 0 4.5922089216035795 1.8994081180562794 27.101798707199432 1 1 0
3871 0 2 0 0.44085522941105243 6.499375835654626 26.702156692553963 0 1 0
3704 0 1 0 1.549845466220344 8.832234066821979 26.590757714238332 0 1 0
10326 0 1 0 3.115604890379849 1.3463506139626427 23.961885400975255 1 1 0
11344 0 2 0 4.637036917932977 6.160804967085927 24.98683346811465 1 1 0
10237 0 2 0 2.319559219235474 4.9375857012597635 25.19391104401425 1 1 0
10591 0 2 0 0.20930791991053432 4.320059947075214 23.242524310877727 1 1 0
10254 0 1 0 4.687692007862504 2.3187498134582816 27.968425712527544 1 1 0
10239 0 1 0 1.7799585800462152 4.687490799610787 24.396031115761318 1 1 0
10238 0 1 0 1.7401061109434561 5.348850464129349 25.864252180246385 1 1 0
10593 0 1 0 0.1832087370979466 3.4525116810460363 22.8492735076805 1 1 0
11346 0 1 0 3.705673067296483 5.832026444170094 24.76402466595339 1 1 0
3872 0 1 0 0.5178700515518988 6.956589939097539 25.88771237328256 0 1 0
12773 0 1 0 3.524290272068873 9.195464553031067 23.005222132025928 1 1 0
3705 0 1 0 2.0918974467040203 9.201474153298028 25.082721249700136 0 1 0
13622 0 1 0 4.253064711104571 0.10035575476209395 25.08997046061803 1 2 0
7881 0 1 0 0.9217532246526203 8.866870381170575 22.80346803137578 1 1 0
8203 0 2 0 3.646046816293446 16.505931192899627 6.7730103094527445 1 1 0
11209 0 2 0 0.8669399177349422 13.420871384711281 7.076614108249206 1 1 0
8204 0 1 0 4.0970422673322675 17.345754500943194 6.995746701579354 1 1 0
9510 0 1 0 2.986328307514097 10.686714633060804 12.61379417604825 1 0 0
9509 0 1 0 1.9005502184414047 11.69526298239711 12.407449037995807 1 0 0
786 0 1 0 0.29761758626187185 12.387995909173066 10.125019253178204 0 1 0
9740 0 1 0 3.243193084214201 14.025954861965392 13.806500681933068 1 1 0
784 0 2 0 0.6842057610197032 11.631092800558838 9.586211656815859 0 1 0
6401 0 1 0 1.6457988890111281 16.13251710433099 9.060178244989544 0 1 0
8886 0 1 0 3.145156365260927 12.096030691000296 9.54262109935859 1 1 0
9508 0 2 0 2.840122780962274 11.599590056971472 12.368621931181291 1 0 0
785 0 1 0 0.7268380320462746 10.783735524599129 10.19655088839997 0 1 0
8068 0 2 0 0.1857471790342047 11.456616482189055 13.211236401017752 1 1 0
9741 0 1 0 3.6580809850436777 12.612074772025027 13.510609995241945 1 1 0
8885 0 1 0 3.9441571825815975 11.97869449427257 10.864178096280895 1 1 0
8884 0 2 0 4.083662208185283 12.102773643963053 9.88483763710599 1 1 0
10988 0 1 0 3.7115369239477656 15.059068111920842 9.915126400013053 1 1 0
5968 0 2 0 0.8400452264306891 17.603043871708397 10.578299160430172 1 1 0
13631 0 1 0 0.9878226954914042 15.89501467863237 14.302991787842254 1 1 0
1679 0 1 0 0.30670198250258723 16.86224364126311 12.169639544667119 0 1 0
11211 0 1 0 0.87758500935759 13.032402943880612 7.956032191298213 1 1 0
2546 0 1 0 4.100642342224382 17.491753424712602 12.91361443661063 0 0 0
8069 0 1 0 0.44296480781037073 11.755292752732148 14.110254458414756 1 1 0
5970 0 1 0 0.37540209833397675 18.043301034149295 9.83124295157154 1 1 0
8704 0 2 0 0.6011020991203226 9.439595989673581 11.207696291760366 1 1 0
9739 0 2 0 3.784185540388547 13.349990094568296 14.139896813421384 1 1 0
6402 0 1 0 1.6431446462545949 14.875313214908008 7.973430577006491 0 1 0
6400 0 2 0 1.9231317272826796 15.220969581457648 8.875320025931929 0 1 0
2545 0 2 0 3.4351062473246725 17.58723327995591 13.596759088830751 0 0 0
2547 0 1 0 2.9818615523259377 16.71917495309786 13.813580148382254 0 0 0
8706 0 1 0 0.67155862361019 9.902920226365122 12.08050960464203 1 1 0
5969 0 1 0 1.5520090700422016 18.23683953235442 10.717611441633151 1 1 0
11243 0 1 0 0.29648997712266423 14.54482378555981 9.96917203408168 1 1 0
13630 0 2 0 1.905001051024885 15.60261743351224 14.614687424247519 1 1 0
1151 0 1 0 0.7356049167911549 9.588122884208406 14.499958231781578 0 1 0
10987 0 2 0 4.658547100212264 14.889106295461197 10.046101964188974 1 1 0
10989 0 1 0 4.623395819931431 13.888714073274514 9.871902987272394 1 1 0
8205 0 1 0 3.133440559616396 16.278410429448787 7.586661597584113 1 1 0
8075 0 1 0 1.6571338607893522 9.419007036920112 20.288638388141436 1 1 0
12727 0 2 0 4.466124352677448 12.36446520984119 16.97872741574916 1 1 0
8074 0 2 0 1.911245246384181 10.063982837943142 19.658530702487198 1 1 0
8076 0 1 0 2.7079081411462607 10.511120557931935 19.998656364185745 1 1 0
10515 0 1 0 1.0653917417526007 12.537634434623392 16.220159070895292 1 1 0
1582 0 2 0 1.1788835265773732 14.09577765132714 16.853627121626893 0 1 0
10514 0 1 0 1.2646750146920747 10.875740381610678 16.217971176223166 1 1 0
1583 0 1 0 1.852375756848154 14.093902247963083 17.545833218255694 0 1 0
141 0 1 0 2.580622364357399 17.691585125248192 21.727606596462344 0 0 0
4528 0 2 0 2.7499709301201816 12.163605194642432 22.600566985054908 0 1 0
140 0 1 0 3.567815542292538 16.48542832934427 21.475812718167795 0 0 0
11505 0 1 0 3.802392900145585 18.044904554034996 16.74249951593609 1 1 0
1584 0 1 0 0.3518257390490693 14.036081532457558 17.412121842648315 0 1 0
13241 0 1 0 1.0783655043867544 15.742683887457913 21.534282830277252 1 1 0
12882 0 1 0 3.4973290669830996 14.138697064639082 19.411827312934058 1 1 0
11042 0 1 0 4.340871338575518 10.40760795834035 16.18855092665515 1 1 0
10513 0 2 0 1.024535453103502 11.66985534140675 15.722715829740103 1 1 0
13240 0 2 0 0.23162280528604637 15.212736855634304 21.683311749870455 1 1 0
139 0 2 0 2.625814450907362 16.816902621990767 21.309880752399405 0 0 0
12881 0 1 0 2.955517566450283 15.604306915978762 19.408656045802527 1 1 0
8255 0 1 0 2.189906226219422 17.128211279109657 17.538306675017694 1 1 0
13632 0 1 0 1.702375157467289 15.108697544444667 15.455705429069916 1 1 0
11503 0 2 0 3.832552551986817 17.037298033988645 16.794402581776733 1 1 0
12880 0 2 0 2.9534862753771933 14.742514421283557 18.907128153947802 1 1 0
13242 0 1 0 0.4444648969788442 14.505123722356855 22.325995369934585 1 1 0
11504 0 1 0 3.4568189177802946 16.791332899650815 15.917178223236983 1 1 0
4530 0 1 0 3.120960020631489 12.247327043008173 21.667389631522205 0 1 0
9670 0 2 0 4.015193416143199 12.142445960699543 19.844693137476863 1 1 0
13802 0 1 0 0.33177286746329654 10.910852610921236 20.11341748621821 1 1 0
13223 0 1 0 1.8086704458817382 9.497221445496187 18.170126592425174 1 1 0
8254 0 2 0 1.3957619856862105 17.63269188207141 18.001163836817415 1 1 0
9671 0 1 0 4.027581936752422 12.372017437680766 18.848968837117884 1 1 0
8256 0 1 0 1.8499747576736907 18.325074185218284 18.615780132120022 1 1 0
12729 0 1 0 3.95520658424906 12.776497788702553 16.29873826495714 1 1 0
11250 0 1 0 0.05218206509440334 14.298152240802073 19.680762293949304 1 1 0
11041 0 2 0 4.178340302308927 9.463922495540002 15.979311569149166 1 1 0
9978 0 1 0 0.7005837712237513 18.376264318730875 16.64670652858033 1 0 0
3703 0 2 0 1.4254754559441138 9.441789511226228 25.824217903947197 0 1 0
1404 0 1 0 1.0508100659767843 11.366326938727397 25.82797489986558 0 1 0
14000 0 1 0 0.07927786103403997 17.357394218758152 22.853462132515684 1 1 0
12772 0 2 0 3.0602443595190385 9.711972147750208 23.74666161779674 1 1 0
1403 0 1 0 1.5814438293087996 12.621209804555496 26.458275274789873 0 1 0
1402 0 2 0 1.0858265365387716 12.311306217437297 25.672295508482225 0 1 0
12774 0 1 0 2.9685613296872853 10.625419211534302 23.377902827139607 1 1 0
1064 0 1 0 4.709003866506079 18.048338298280186 26.07303154871225 0 1 0
4529 0 1 0 3.3178227443522186 12.820078371306083 23.117954997027194 0 1 0
9982 0 2 0 1.996306862715962 14.429529273854747 27.431480922243956 1 1 0
9983 0 1 0 2.3009639621877946 15.040008329712665 26.6900381524535 1 1 0
2096 0 1 0 3.5455960518213683 12.849852160771377 28.070471066528278 0 1 0
1532 0 1 0 1.9407391878182032 16.081591559969098 24.440337617784568 0 1 0
12397 0 2 0 3.757909637064904 18.238642913172413 29.173612436513412 1 0 0
1533 0 1 0 3.1098884466643515 16.80171632522251 25.153449476054305 0 1 0
1531 0 2 0 2.649639351769768 15.937699798147145 25.06169945966147 0 1 0
9984 0 1 0 1.9436717077634442 14.968776397597578 28.217400678991133 1 1 0
12091 0 2 0 0.7521380265085712 16.039181754925103 29.482701023783296 1 1 0
12399 0 1 0 4.194915085928867 17.643672608067224 29.831845545171674 1 0 0
2097 0 1 0 4.480237360373958 11.858962792209708 27.425164459328272 0 1 0
8241 0 1 0 0.7374109537483469 18.17927192950452 28.878138282189944 1 1 0
922 0 2 0 4.751403258857429 10.503256928365024 26.148764180057963 0 1 0
13999 0 2 0 0.48353767797066183 17.864752674097716 23.524586860258875 1 1 0
924 0 1 0 4.258152440408121 10.267789679329383 25.330526092930537 0 1 0
1217 0 1 0 4.104444958559405 14.586975220091773 24.554159839065097 0 1 0
1216 0 2 0 4.48124726108576 14.094874686827051 23.766104902488944 0 1 0
13533 0 1 0 0.6711815524068836 12.291342847699633 22.73393264236667 1 1 0
2095 0 2 0 4.472806159816677 12.760986246580714 27.850568821279605 0 1 0
1063 0 2 0 4.030399703839087 18.32468885111059 25.476813258549036 0 1 0
12093 0 1 0 0.44554080716992617 15.639486835206307 30.33163249714177 1 1 0
3373 0 2 0 2.464079773406271 26.547951020978655 6.633915418906896 0 0 0
3375 0 1 0 1.9281454469479904 27.133870348490102 6.024419094261113 0 0 0
3374 0 1 0 3.3006874398413117 27.005965115661414 6.612703661013742 0 0 0
10742 0 1 0 2.5565699048294874 24.165092267137073 7.443557174102156 1 1 0
13101 0 1 0 4.799554544443191 20.479176803941236 7.540952893590116 1 1 0
13107 0 1 0 2.0602143201039427 20.510695832744144 13.267566644782416 1 1 0
11585 0 1 0 2.8810257210294115 19.45330831853988 9.521990060186258 1 1 0
13514 0 1 0 0.7819814708616113 24.54306685174182 12.451880111815296 1 1 0
10743 0 1 0 2.2708470502130518 23.002788821112038 8.430204524008738 1 1 0
11586 0 1 0 4.199680853067025 18.92770927955891 10.234720616291195 1 1 0
6137 0 1 0 1.299758510910488 20.818766459874972 9.916528481967564 1 1 0
6136 0 2 0 1.5402279873228375 20.60280517129051 9.040218037009067 1 1 0
13303 0 2 0 4.708809845871388 22.418533847911938 7.677248716729829 1 1 0
13507 0 2 0 2.2163452335435267 21.32689472088486 11.692308613569757 1 1 0
13105 0 2 0 1.926914491246922 19.832616373417267 13.918119463891943 1 1 0
6138 0 1 0 0.7599148869837672 20.099665025695156 8.663357239469406 1 1 0
13106 0 1 0 2.365948541596908 19.02495173166794 13.584225325628044 1 1 0
11759 0 1 0 1.9904037030725943 26.110542536459327 10.372726741467908 1 0 0
13508 0 1 0 3.1493835249435067 21.37982948373723 11.324766809506984 1 1 0
1748 0 1 0 1.3575684380044917 26.797968116099334 8.191292360905445 0 1 0
13509 0 1 0 1.9194591403445136 22.26912382520594 11.935555244611725 1 1 0
1747 0 2 0 0.8385845000016683 26.291098885366907 8.868899999952431 0 1 0
11760 0 1 0 3.139672237972011 25.806859398698254 11.342693592719492 1 0 0
1749 0 1 0 1.2376402860868616 25.4161901546243 8.640916950683408 0 1 0
11758 0 2 0 2.8038102703111214 26.52692966697666 10.726044533484243 1 0 0
13513 0 2 0 0.6988994929432958 23.64164372212455 12.07684933931485 1 1 0
1253 0 1 0 3.801560581615147 24.01270531611001 13.408738621502602 0 1 0
1254 0 1 0 4.751550584799834 25.079396345680617 12.770363050657231 0 1 0
11136 0 1 0 4.087652962206254 25.967580811948533 9.250154934276217 1 1 0
13515 0 1 0 0.3648545269569209 23.19975007007766 12.944390576634492 1 1 0
11584 0 2 0 3.4508325432804465 18.642690801925376 9.692487847371039 1 1 0
6585 0 1 0 0.45101800196741276 21.797032417006474 14.854844384677204 1 1 0
13100 0 1 0 4.646962408822018 19.123766008374655 8.181687953818816 1 1 0
12927 0 1 0 0.26487540590463204 27.250280931264868 12.517922547141755 1 1 0
1252 0 2 0 4.213486468263293 24.281439237043003 12.572503522914836 0 1 0
2573 0 1 0 4.479427434085503 23.32440495515041 10.764109526955185 0 0 0
12925 0 2 0 0.882153932695096 27.236422953724418 13.288608090636636 1 1 0
10741 0 2 0 1.9538049666914623 23.852468197856115 8.127491038955338 1 1 0
6583 0 2 0 0.06058521397320354 21.996573356218775 14.002947090209664 1 1 0
1453 0 2 0 2.7716674886692414 19.63791396312214 19.329056867927513 0 1 0
3841 0 2 0 3.2223781459628036 23.997265243199024 15.352662689155087 1 1 0
10875 0 1 0 0.37475104108881807 21.013501033825243 20.81275577823531 1 1 0
1455 0 1 0 2.7629099123738325 19.898653510505003 20.26001155870144 0 1 0
13944 0 1 0 3.3548348645315094 26.670482986407105 20.504484723113524 1 1 0
1454 0 1 0 2.335016599250499 20.290506130011714 18.835415316663152 0 1 0
1388 0 1 0 3.7448715289881593 20.484735671008714 16.731373999892917 0 1 0
1389 0 1 0 3.095904120544256 19.738710819788444 15.528632014091247 0 1 0
11263 0 2 0 3.04347400100377 22.158442769867314 17.447865754324834 1 1 0
11265 0 1 0 3.073070304635088 22.977093560595726 17.992307381838092 1 1 0
13030 0 2 0 3.0144090734766325 19.762198489649435 21.870398193158078 1 1 0
13943 0 1 0 1.884489798185498 27.34170253878128 20.801343844300792 1 1 0
1387 0 2 0 3.805988322763628 19.69620251020605 16.218755275794766 0 1 0
10804 0 2 0 0.7724930179853098 21.18399224680932 16.80981628044393 1 1 0
13942 0 2 0 2.591977848759166 26.756015418585953 21.135711263388536 1 1 0
9976 0 2 0 0.2574314546356886 18.744673325973356 15.831149654703227 1 0 0
11264 0 1 0 2.078009371583289 21.954759577046424 17.22578379660957 1 1 0
12063 0 1 0 1.4617230022915713 24.7720541709771 15.451345697182333 1 0 0
11181 0 1 0 3.439460700422471 22.92723699535581 21.831664341026244 1 1 0
11158 0 2 0 2.9454350691418907 24.507341308501253 18.653326427488544 1 1 0
11180 0 1 0 2.4624163565885526 24.10009284831215 22.22895812640226 1 1 0
12854 0 1 0 1.001639954872425 27.723794281356653 18.938525457552203 1 1 0
3843 0 1 0 3.9845488492010337 24.505710056742643 15.766943725465726 1 1 0
10873 0 2 0 0.8063495987720394 21.682654971187723 20.275564104782983 1 1 0
10746 0 1 0 0.4285404604100555 25.428134916124822 17.12843936874018 1 1 0
11160 0 1 0 2.846368741546213 24.296059774717428 19.606415744819945 1 1 0
10874 0 1 0 1.3414911391724031 22.31169619235611 20.80104783880925 1 1 0
10744 0 2 0 0.5290510866162288 25.822340159592347 18.061217861784055 1 1 0
11159 0 1 0 2.0982797191551845 24.993746580348205 18.34446074360936 1 1 0
11179 0 2 0 2.566896241830526 23.325207183239993 21.64966067039381 1 1 0
1049 0 1 0 4.094558147034053 26.80870635904058 16.664053668922257 0 0 0
3842 0 1 0 3.340052792945502 23.149014736540565 15.86293111224735 1 1 0
10805 0 1 0 0.5204496012183605 20.228565337612192 16.639725000192428 1 1 0
13032 0 1 0 3.870606909659747 19.785508312925213 22.328285427597237 1 1 0
12061 0 2 0 0.6535455374854691 25.386787548992217 15.5497034101752 1 0 0
12307 0 2 0 2.43496273821439 27.39382033182163 16.18016081221597 1 0 0
1050 0 1 0 4.47720698565927 25.70361188748918 17.575433220937228 0 0 0
6552 0 1 0 4.680570032559031 18.86845766850273 19.282948632623693 1 1 0
13031 0 1 0 2.474079608756347 20.242901723314834 22.498026257824577 1 1 0
12062 0 1 0 1.1386299075731627 26.209521970717578 15.686733718030592 1 0 0
1048 0 2 0 4.798903597438319 26.18890860030554 16.803999762091 0 0 0
10806 0 1 0 0.16219685666065176 21.51090866243984 17.52293347850378 1 1 0
1364 0 1 0 2.634247710411531 26.20234928456853 22.582486963015636 0 1 0
9977 0 1 0 0.9448807694709213 18.745371734363925 15.148564815890389 1 0 0
13279 0 2 0 0.9795366752192162 21.76743385093966 25.685087231935448 1 1 0
13281 0 1 0 1.5045322292643675 21.000125963530753 26.185711917576274 1 1 0
11518 0 2 0 0.5091352105742277 25.869850157960922 26.847538007857036 1 1 0
1570 0 2 0 0.473957232776258 20.699807180780553 23.080331294473254 0 1 0
12972 0 1 0 1.8783129804795824 19.59669307216943 27.602639756347063 1 1 0
1571 0 1 0 0.756386530230396 21.03864902097154 23.940646332317858 0 1 0
12970 0 2 0 2.533553735174576 20.137326042816063 26.96288805434885 1 1 0
9481 0 2 0 4.175838956709131 21.223696736588465 29.0148120247706 1 1 0
13361 0 1 0 3.900778973123311 24.376467069143498 28.71503350145169 1 1 0
12971 0 1 0 3.0021311907029706 20.662502573297598 27.692900659987767 1 1 0
13280 0 1 0 1.4885402975431663 22.574053802570017 25.808323553547428 1 1 0
1572 0 1 0 0.48706614375510976 19.71734868263889 23.20739796382197 0 1 0
11069 0 1 0 1.0922967836477382 27.412566246726985 25.972402270052182 1 1 0
11251 0 2 0 1.5304404578750654 26.171379749848477 29.793276232755204 1 1 0
1363 0 2 0 2.8676865775388625 25.852944446939 23.557453176921914 0 1 0
11520 0 1 0 1.3062325585407015 25.28284458940068 26.53409648943852 1 1 0
9436 0 2 0 2.4911354454387142 24.485427026735305 25.92737067513884 1 0 0
13362 0 1 0 2.7705658065952257 24.590688107319462 29.717533090549292 1 1 0
12398 0 1 0 3.8919265358561397 19.183255882350718 29.371517930001502 1 0 0
11253 0 1 0 1.2948572549361408 26.242379413436034 28.869815397860837 1 1 0
9437 0 1 0 3.3925415523450018 24.504932495741098 26.366290612321567 1 0 0
9438 0 1 0 2.5914608974157898 24.908866316658 25.05983356224172 1 0 0
8239 0 2 0 0.50310159746716 19.02263789713843 28.36807774829883 1 1 0
1065 0 1 0 3.593078977774268 19.021637013892843 26.003688246043456 0 1 0
9483 0 1 0 3.774990241910599 22.101978931697076 29.28199788063537 1 1 0
13360 0 2 0 3.5133594719371875 23.925526069926626 29.481428176711074 1 1 0
1365 0 1 0 3.831269278767843 25.898672210917358 23.662433626458398 0 1 0
11070 0 1 0 1.9451171397216656 27.321962538175462 24.69153314594968 1 1 0
11655 0 1 0 0.1669647303166558 26.06578367433353 23.633019052482318 1 1 0
3906 0 1 0 3.2970320007665253 27.63831113632565 29.203542050345128 0 1 0
11252 0 1 0 0.7508821789990934 25.820686625482466 30.21064611781075 1 1 0
6413 0 1 0 2.973964454724878 31.107018158742353 6.446005208133756 1 0 0
6414 0 1 0 4.264711099331068 30.37619723797276 6.449283648584111 1 0 0
6412 0 2 0 3.3060766867186477 30.172747795686664 6.413517515924099 1 0 0
13774 0 2 0 1.659683190028454 36.21762318560502 7.4051635967022635 1 1 0
10079 0 1 0 3.714254385781023 34.18082040292606 5.862653724336998 1 0 0
13775 0 1 0 2.565805676557416 36.36816231844029 7.170662441992386 1 1 0
13728 0 1 0 0.2990114151579945 36.531330161767094 6.032499687592576 1 1 0
10078 0 2 0 4.10697744053119 33.371939853295075 6.187311327769027 1 0 0
1876 0 2 0 3.1056530685372556 29.4356965496408 12.467746963318444 0 1 0
11259 0 1 0 1.9931326269259346 32.12510833455302 8.751902309456169 1 1 0
12764 0 1 0 2.958901059169427 35.10096651119628 15.011879113522621 1 1 0
11125 0 2 0 3.4599158659616838 29.797385948363615 9.233294654459757 1 1 0
11126 0 1 0 4.046751244403056 29.1170748610784 9.562582009894648 1 1 0
2269 0 2 0 4.286152647117841 33.54660832943894 9.073584905347488 0 1 0
12827 0 1 0 0.672782298541434 31.668875339733283 14.224124956725849 1 1 0
11115 0 1 0 3.8042681866567243 36.073482877998295 13.083218832147637 1 1 0
9031 0 2 0 0.5925961221665486 32.47436794703145 12.418344226705841 1 1 0
11783 0 1 0 1.4100212091603743 37.02887951657463 13.344903458086552 1 0 0
11257 0 2 0 1.3312706203123408 32.62414144180844 8.180131978973948 1 1 0
12926 0 1 0 1.596929119855504 27.84015839528288 13.085260876166679 1 1 0
13776 0 1 0 1.7417646217630482 36.00195106292368 8.37333633235508 1 1 0
11127 0 1 0 3.3134912134121786 29.621589016095452 8.307691394646024 1 1 0
1878 0 1 0 3.4321289142014066 28.63158864789967 11.982210739019518 0 1 0
12191 0 1 0 3.5756505531362137 35.30360172447599 9.934597743278223 1 0 0
12192 0 1 0 2.9230126638155944 36.558210144095376 10.52367084174768 1 0 0
11113 0 2 0 3.0899590854854107 35.41033473087637 13.096779887739553 1 1 0
12190 0 2 0 2.69759511617033 35.665075271362326 10.18267964448213 1 0 0
1461 0 1 0 2.4716643450950757 32.52722342147992 11.766087817630558 0 0 0
1877 0 1 0 2.9075574964911888 30.18708622446053 11.874715641638904 0 1 0
1459 0 2 0 3.345258271099719 32.96331174520285 11.705755085361968 0 0 0
1460 0 1 0 3.5504965468836445 33.08135185061489 10.730319877073953 0 0 0
4870 0 2 0 4.534259605051891 28.58283589122416 14.579801889752348 0 0 0
13235 0 1 0 1.4537502184962103 35.562464388679395 11.909439104096743 1 1 0
12826 0 2 0 0.4868585595470788 31.249420759344535 15.091991910019582 1 1 0
4872 0 1 0 4.159527769571545 29.15452383762511 13.815747760432306 0 0 0
2271 0 1 0 4.111015292547439 33.56322844057258 8.115261435401688 0 1 0
11515 0 2 0 0.8829287405252236 28.957159615471355 9.747141810546545 1 1 0
13234 0 2 0 0.5415708460952661 35.73952027612132 12.353089235807738 1 1 0
11516 0 1 0 1.8024633639894256 29.26738295129281 9.725051735666037 1 1 0
11114 0 1 0 3.2994668670135394 34.64218746250768 12.380022177569991 1 1 0
11517 0 1 0 0.7956829189649111 28.077679164251148 10.144492418876174 1 1 0
9033 0 1 0 0.2461746628439235 33.37055868700116 12.1753530191357 1 1 0
11258 0 1 0 1.9464002703345078 33.25072003430749 7.736913566044286 1 1 0
13451 0 1 0 0.25303715237599345 34.85173554986754 14.265752397431877 1 1 0
13236 0 1 0 0.05208606386160573 35.88868679996076 11.508092116038862 1 1 0
7368 0 1 0 0.05416439042302927 33.608819498709856 18.299467736027083 1 0 0
11984 0 1 0 3.6941310048949783 35.83298459754658 19.024963593220573 1 0 0
12763 0 2 0 3.217127844122833 34.954669479797076 15.961685959394574 1 1 0
12308 0 1 0 2.7686834304202623 28.054258477583524 15.55470810506364 1 0 0
12316 0 2 0 0.7101197831963634 28.750578778363206 22.406481268350905 1 0 0
12229 0 2 0 3.1715074794549563 30.600950106671164 21.158394542625704 1 0 0
12309 0 1 0 2.261781538083911 27.939683518487573 16.978610446161582 1 0 0
11983 0 2 0 4.269205238450186 35.343857368942224 19.62628142142474 1 0 0
7742 0 1 0 2.070167541341132 35.09144837233818 22.230638085357302 1 0 0
12855 0 1 0 0.801133507536071 29.280445683426574 18.806139139933986 1 1 0
12853 0 2 0 1.4918317269489643 28.557276051324287 18.910013596008405 1 1 0
12230 0 1 0 2.4848794619116497 30.047595563621577 21.569242074711532 1 0 0
1726 0 2 0 2.9427368796862687 32.920812590892396 19.117321710535343 0 1 0
13553 0 1 0 4.385265256375606 29.332399865058456 19.83037640537439 1 1 0
7759 0 2 0 2.5355240564988573 36.82384933949729 17.86078177518668 1 0 0
7743 0 1 0 3.3048455866054645 35.32604764159062 21.202755633565527 1 0 0
1727 0 1 0 2.0153932793965947 32.90185313806488 18.845057353092617 0 1 0
2074 0 2 0 3.2074722033875127 31.761130128757575 16.23270153045735 0 1 0
2075 0 1 0 2.4582745305159137 31.308603495309818 15.719947208648218 0 1 0
7741 0 2 0 3.073101352442622 35.206055288956 22.15092012908118 1 0 0
11985 0 1 0 3.9916302830546773 34.42749328783699 19.541200037422072 1 0 0
12765 0 1 0 3.1332213626151 33.973903247721985 16.218350320032783 1 1 0
7366 0 2 0 0.1207306107564396 32.80254098529627 18.898079277741083 1 0 0
2076 0 1 0 2.8558410298875554 31.919643715433782 17.16079612961635 0 1 0
1728 0 1 0 2.979140303036017 32.26172527321809 19.847969590645793 0 1 0
7760 0 1 0 2.9256911430744132 36.31658589232557 17.08932177475318 1 0 0
11037 0 1 0 0.9736394358202283 35.97061795957602 17.480818759891466 1 1 0
11035 0 2 0 0.3011419167333298 35.251515201675225 17.500009186718337 1 1 0
12231 0 1 0 3.8928280756484233 30.449870649393542 21.799544808726555 1 0 0
12318 0 1 0 0.0626903311031098 29.49262682762268 22.28265072288628 1 0 0
11036 0 1 0 0.24647389341304207 34.9672204896539 16.580665633539404 1 1 0
10865 0 1 0 3.862487021756821 36.455881849062536 24.786516154214997 1 1 0
3905 0 1 0 3.2693994412519976 29.1555242033242 28.70527325706503 0 1 0
3904 0 2 0 3.857378803285658 28.345422473895354 28.858748008192663 0 1 0
12878 0 1 0 2.7779987778261477 31.95069655771365 28.948260908558694 1 1 0
10926 0 1 0 2.9005668352249905 30.117471360087595 24.89115037003257 1 1 0
11068 0 2 0 1.344768150763542 27.9230152384578 25.122777487048637 1 1 0
3946 0 2 0 4.756294376292975 32.92660536158036 23.878770521355996 0 1 0
7740 0 1 0 4.313016294759998 33.91056002225265 29.999705919264883 1 0 0
12877 0 2 0 2.0449743134759 31.326100516826514 28.786795477432577 1 1 0
9751 0 2 0 0.13772869006264804 34.92388033316735 22.86597058444635 1 0 0
10924 0 2 0 3.414181114296621 30.82970871657824 25.33660804110067 1 1 0
12879 0 1 0 2.179688272982835 31.137113586835465 27.836779439730478 1 1 0
12317 0 1 0 0.7756595279330398 28.55466666266031 23.35634832050142 1 0 0
10925 0 1 0 4.249359204008262 30.500575423658002 25.65017318693298 1 1 0
3948 0 1 0 4.249714421329233 33.30230595919552 23.107137711249297 0 1 0
10866 0 1 0 2.945980349194069 35.39640587045256 25.413049147967374 1 1 0
13880 0 1 0 3.3718017870792236 35.434434804725086 28.40685258677928 1 1 0
2296 0 2 0 0.12279671365861555 35.8826022721493 27.77586796485406 0 1 0
4268 0 1 0 1.2143790773880443 33.426577333810165 26.154532321481184 0 1 0
4269 0 1 0 2.54064486905134 32.69828621668316 25.672979679224923 0 1 0