LAMMPS data file via write_data, version 4 Feb 2025, timestep = 500000, units = metal

14040 atoms
2 atom types

0 77.00399999999999 xlo xhi
0 74.1 ylo yhi
0 75 zlo zhi

Masses

1 1.007999999740698
2 15.99899999588435

Atoms # full

7433 0 1 0 1.29714031808999 3.53081172024049 7.075176660925342 1 1 0
7432 0 2 0 1.4725950653452204 4.306018922843289 6.51159722473096 1 1 0
226 0 2 0 2.7928390421793123 1.4459367977628066 4.808816236478498 0 1 0
13345 0 2 0 2.3700955657884246 8.456198412632745 4.259295801175217 1 2 0
5869 0 2 0 1.8139699204247615 3.5142528521018037 2.6703174532895644 1 1 0
5871 0 1 0 1.903844618125532 3.545839183242166 1.7568694656665942 1 1 0
10768 0 2 0 4.223108162302385 6.633560716986705 5.04327241791761 1 1 0
228 0 1 0 2.419984199820678 2.036960123597443 4.095622282601496 0 1 0
9936 0 1 0 2.0582014584320474 5.42990814696103 0.9423670338606072 1 1 0
2782 0 2 0 3.760550279715243 5.462969918098506 2.809407031888846 1 1 0
9934 0 2 0 1.7803411796979751 5.158323877133911 0.05545118243185775 1 1 0
227 0 1 0 3.752472100074463 1.5195752319039957 4.830042368938174 0 1 0
2783 0 1 0 4.161372583833481 5.895340960032086 3.611947315029364 1 1 0
9935 0 1 0 0.8253560479326882 5.378456046624052 0.08898348102734614 1 1 0
2784 0 1 0 3.052871904085431 4.826607234310801 3.1506838493696896 1 1 0
1302 0 1 0 2.5175256448549375 1.5966905350181144 6.983587602674285 1 2 0
10770 0 1 0 4.230099675752061 6.21774003851194 5.945146532527975 1 1 0
13347 0 1 0 2.109590772726236 7.975705850984649 3.4261078059506413 1 2 0
13346 0 1 0 3.057363860134775 7.81535453758917 4.508574697691258 1 2 0
7434 0 1 0 1.7526363433879768 3.9247863109134022 5.616675524243366 1 1 0
5870 0 1 0 0.8711985239389496 3.494854848264245 2.9086266004766594 1 1 0
11237 0 1 0 2.5744219013253287 5.465342013793875 7.215981285221999 2 2 0
1301 0 1 0 1.1190356334411384 1.1737557373600669 7.50788319819536 1 2 0
3429 0 1 0 4.0187035167150045 0.34816640847396346 6.366203962972757 1 1 0
8165 0 1 0 2.8890773510757413 7.859550715287555 7.491779741547245 1 1 0
7099 0 2 0 4.629331165517157 3.8484627037477157 7.944273381662863 1 1 0
275 0 1 0 2.3852539629589335 1.9882952040158948 14.566593907181696 1 1 0
5386 0 2 0 1.3311686775375076 8.117173342193787 10.459689546673463 1 1 0
1300 0 2 0 1.789731214836075 1.8680511082595366 7.5635223277741925 1 2 0
9150 0 1 0 3.7663091692820725 2.598243518997852 12.86302431460468 1 2 0
9148 0 2 0 2.8323363756780715 2.3088637001256505 13.031979075629286 1 2 0
1754 0 1 0 3.4064416792800807 7.321248918393899 12.810735110471846 0 2 0
8166 0 1 0 3.542387910744123 9.04999360425805 8.309862703338263 1 1 0
6098 0 1 0 2.866356423686687 2.1998546483813337 10.553181303141267 1 2 0
5697 0 1 0 0.8796908887604075 9.195574856329618 12.718014150756256 1 1 0
9149 0 1 0 2.3586367468679965 3.123989858154794 12.833197547325183 1 2 0
5522 0 1 0 0.44511330268621196 1.2743651650683943 11.635944322118991 1 1 0
6099 0 1 0 2.0801698355628484 2.5929166793283094 9.28817581173792 1 2 0
6097 0 2 0 2.701396289546239 2.930996756234915 9.93091463878701 1 2 0
8164 0 2 0 2.7018459962759453 8.756119158087976 7.848270102794528 1 1 0
7100 0 1 0 4.246095730525861 3.1586348491137715 8.563549237866736 1 1 0
1876 0 2 0 4.488461018191289 7.889202118563234 14.362160775734427 0 2 0
5388 0 1 0 1.7760089718414216 8.311449691321759 9.64016640291124 1 1 0
206 0 1 0 0.4071685565823235 7.571877238694147 14.270587454275041 1 1 0
1753 0 2 0 3.2613023725976538 6.912528615557182 11.938030452334932 0 2 0
13344 0 1 0 2.2253507732554114 5.3636006496104125 11.857276347328101 1 2 0
11238 0 1 0 3.889868571926981 5.655359380041834 8.07581731963874 2 2 0
11236 0 2 0 3.0971054441316954 6.165745940612504 7.672711650973326 2 2 0
1755 0 1 0 4.216108017796526 6.887924299262192 11.566705927246192 0 2 0
13342 0 2 0 1.5245772325903941 4.658465831172179 11.991286028935338 1 2 0
5387 0 1 0 2.0620353486683825 7.688929053125257 10.988407140709915 1 1 0
13343 0 1 0 1.5176909693106393 4.187463557346355 11.179440201043002 1 2 0
276 0 1 0 1.416179359301344 0.8756930553743272 15.003522773245068 1 1 0
1878 0 1 0 3.8422588819885983 8.279017011044186 14.936168595867775 0 2 0
6719 0 1 0 0.4330040262744718 2.6275403204648544 14.927009613340864 1 2 0
7859 0 1 0 3.8178719376401014 0.6074913658761709 16.209321878477713 1 1 0
7369 0 2 0 2.0891483691077046 3.6788010174442647 18.21231328717514 1 1 0
10088 0 1 0 1.5872670884010214 4.373702081337534 19.562143411188703 1 1 0
10089 0 1 0 0.35983906270052357 3.9894832910963487 20.4410921430668 1 1 0
9771 0 1 0 1.783106814815051 1.2367701481876001 19.577743835480128 1 1 0
6451 0 2 0 4.716517808601025 7.457291673415896 17.73592421350364 1 2 0
7371 0 1 0 3.0317714886797775 3.6417487081272086 17.96194759983692 1 1 0
10080 0 1 0 4.5632149402495825 0.13690100856671888 20.443635743571782 1 1 0
4635 0 1 0 1.645641192966169 7.17919788076185 20.83439457370827 0 2 0
7370 0 1 0 1.7760878085692615 2.7568549432566956 18.20542192631028 1 1 0
12250 0 2 0 1.8033018771415676 1.6595683232588738 21.138768701816918 1 1 0
12252 0 1 0 0.8802235720942047 1.974182371494628 21.22128356031138 1 1 0
10087 0 2 0 1.0328685400110988 4.70649467038106 20.28971970908652 1 1 0
4633 0 2 0 2.2356001827563388 7.813176838904716 21.270030905985926 0 2 0
7190 0 1 0 3.7234198299138885 7.555363440799226 20.845929037080545 1 1 0
7189 0 2 0 4.733537564918479 7.424795675457528 20.654844014751777 1 1 0
274 0 2 0 1.9800894859879898 1.573314757266555 15.385030737042962 1 1 0
6623 0 1 0 0.8504173100612645 4.469979672429819 17.015948985127853 1 1 0
9770 0 1 0 2.2193641698315663 0.19007541778558798 18.563168212416592 1 1 0
6453 0 1 0 4.386993922616767 7.3568995784809506 18.685786840408248 1 2 0
5241 0 1 0 3.7933371263847806 1.3635551607214762 22.318625767938432 1 1 0
4634 0 1 0 1.8942590197069717 8.604755709358848 20.77994891104853 0 2 0
207 0 1 0 0.8078874622075166 6.876818186428865 15.623069374350498 1 1 0
6622 0 2 0 0.4862825459644875 5.210035203043164 16.44058485143987 1 1 0
9769 0 2 0 1.6561560383853158 0.9556926889642062 18.625429820671737 1 1 0
12251 0 1 0 1.8088586725572102 0.8081083565067358 21.613874155726275 1 1 0
10100 0 1 0 1.6136297493701663 5.0273674683883804 22.208175457953608 1 1 0
6624 0 1 0 0.28146183792008667 4.749851342536608 15.598271013395651 1 1 0
205 0 2 0 0.8342142101672566 7.7396805681279135 15.129250761623993 1 1 0
10099 0 2 0 1.4938450522821347 5.039064876564784 23.141421604008585 1 1 0
10101 0 1 0 2.343060589910912 5.125503606082123 23.592687340973253 1 1 0
13298 0 1 0 3.3093543799175102 0.8607960297546728 25.842525281541278 1 2 0
9531 0 1 0 4.716013470952718 5.972421544524572 24.39558694498579 1 1 0
9530 0 1 0 4.540812194821737 4.510612915283023 24.774823494260882 1 1 0
5239 0 2 0 3.9804695831819856 1.9738098275733726 23.059064378394215 1 1 0
9529 0 2 0 4.078800209161501 5.369635270962375 24.82423541694387 1 1 0
8159 0 1 0 0.3047992720216112 8.933581371417054 22.909420093891836 1 1 0
5240 0 1 0 3.297919136889126 2.685923060786792 22.972177943374945 1 1 0
12023 0 1 0 4.016145236533597 11.57535706450423 4.427827126829647 1 1 0
5224 0 2 0 1.5923449622185384 16.00295309764781 5.841441866388667 1 1 0
7231 0 2 0 0.6700892431628019 10.455531235567452 7.452385066819894 1 1 0
5225 0 1 0 1.7646211054264929 16.79434555177965 6.4482513347523955 1 1 0
3633 0 1 0 4.419733652026474 15.597496658139809 3.7163075135139447 1 1 0
10526 0 1 0 4.757508712197264 18.33887877876858 6.845275495551666 1 1 0
12022 0 2 0 3.0585030551043095 11.859535960628067 4.325821399867611 1 1 0
3806 0 1 0 0.03170170274323302 9.914808851730342 3.7059366353584955 1 1 0
12024 0 1 0 2.555497231608452 11.239526644384846 3.8172227338777187 1 1 0
7233 0 1 0 0.8565332242121546 11.174568241424975 6.82333864743655 1 1 0
3805 0 2 0 0.44639424261857746 10.803026167129087 3.467874735801107 1 1 0
10431 0 1 0 2.3242656402980306 14.854662515560916 4.454369274721587 2 1 0
2374 0 2 0 0.4622171725712374 14.291722898396952 1.7131571459713675 0 1 0
2376 0 1 0 1.2033957055471254 14.36093830262947 2.3481118911808494 0 1 0
10429 0 2 0 2.7671867110738924 14.533622912836737 3.643205473952699 2 1 0
2375 0 1 0 0.34300318346259917 13.34780554533458 1.539636651611967 0 1 0
10430 0 1 0 2.88342139579409 13.508725687411065 3.8613087361528735 2 1 0
3807 0 1 0 0.2575537173645656 11.311994628272048 4.281792690969347 1 1 0
5226 0 1 0 1.022782892990181 15.411147574941117 6.315314940265891 1 1 0
7232 0 1 0 1.5118288413946948 9.962582827761151 7.512850945894837 1 1 0
8128 0 2 0 4.391683654057937 10.405049983636781 9.653600541918204 1 1 0
8129 0 1 0 3.5747402521407396 10.890343209431878 9.90203208444373 1 1 0
12630 0 1 0 1.8125064899894314 12.430367867844804 9.720099029032653 1 1 0
12628 0 2 0 2.339932941607181 12.124943449339924 10.460517334208543 1 1 0
12629 0 1 0 2.7620245475247613 12.932342163945885 10.774602781887225 1 1 0
12670 0 2 0 2.758932012321238 15.739674605063716 13.402426240282887 1 1 0
1896 0 1 0 3.0412912730583845 14.545141028265766 8.179047970294862 1 1 0
951 0 1 0 3.1827785935793997 12.370118831944266 13.447860364060276 1 1 0
949 0 2 0 4.066726506453494 11.927285144095528 13.518166869777648 1 1 0
950 0 1 0 4.6178571901712875 12.657889589740996 13.80907943437478 1 1 0
11633 0 1 0 0.5377243964293903 13.27706599168016 12.27739628004758 1 1 0
10254 0 1 0 0.7283179097949117 17.617384617367406 8.84177749858998 1 1 0
702 0 1 0 0.9991919954402946 15.326876118277863 9.065890831525442 0 1 0
5696 0 1 0 1.2950483960037324 10.616814977612178 12.206154869161116 1 1 0
5695 0 2 0 1.2636668968583222 10.055819470749078 12.981414345459008 1 1 0
10388 0 1 0 1.3347029933987633 12.98383188443086 14.59581229996823 1 1 0
926 0 1 0 4.011453852823364 14.825239127170194 10.191152062932213 0 1 0
10387 0 2 0 1.791988506205791 13.246475100341913 13.755892585779787 1 1 0
10110 0 1 0 0.11990791578722797 16.575212740607824 14.716947680168824 1 1 0
701 0 1 0 0.5961954907149749 13.962589622911812 8.838444175020992 0 1 0
10252 0 2 0 0.44051684839411515 17.059162190409204 9.553349800015125 1 1 0
927 0 1 0 3.691136960576979 15.134567578458709 11.64861852046846 0 1 0
800 0 1 0 1.0152600370654092 17.399288480869462 11.362102649994421 0 1 0
10389 0 1 0 2.1629710072983204 14.160497940800338 13.830222483217803 1 1 0
700 0 2 0 1.325435597306099 14.557155408896955 8.630769097451736 0 1 0
925 0 2 0 4.172431284464043 14.506926406852378 11.084426920267097 0 1 0
799 0 2 0 1.569197630053072 17.76420580183746 12.108593858485191 0 1 0
12671 0 1 0 2.0964514474083744 16.310300761328524 13.00838701731332 1 1 0
12672 0 1 0 3.3519254087907 16.314658725369107 13.964142342175666 1 1 0
1894 0 2 0 3.933933808437591 14.82073640320994 8.421978171331375 1 1 0
11865 0 1 0 2.513915265306381 10.561034160832978 14.691266482543842 1 1 0
10527 0 1 0 3.5206810148579666 18.432917001132754 7.6760268832697545 1 1 0
10525 0 2 0 4.28842537537518 17.923668860397886 7.615785745082473 1 1 0
8130 0 1 0 4.6099926640064455 9.882567330558045 10.470147860771817 1 1 0
1895 0 1 0 4.382541204674469 15.074282491919458 7.59005319376999 1 1 0
9475 0 2 0 4.394199377447952 15.246194074207368 17.683845407852026 1 1 0
2387 0 1 0 3.826523753496093 12.138061352755761 19.687021769047863 1 1 0
6845 0 1 0 2.1938447499051104 17.211488770638372 22.26169646500787 1 2 0
8806 0 2 0 0.7533697019530489 9.786361829910858 20.044961513130332 1 2 0
11863 0 2 0 2.3184322120841587 10.215742915719165 15.568058609922952 1 1 0
8808 0 1 0 0.9856170407314304 10.755340139921667 19.79957791315886 1 2 0
9476 0 1 0 4.479684733419255 16.01551219205958 16.97691809876069 1 1 0
11417 0 1 0 4.061849070221813 10.292988938493565 16.661160804912907 1 2 0
8160 0 1 0 0.12771278796758473 9.875110263570804 21.722921079512197 1 1 0
13186 0 2 0 1.9550305283707563 17.872704848349283 17.41755006681236 1 1 0
10139 0 1 0 1.4365121025051735 13.751772115278875 17.202773999102902 2 1 0
6629 0 1 0 1.450693269305044 12.792022735922219 20.820663343637733 1 1 0
11864 0 1 0 1.8398368242072962 9.380971576124182 15.378156074562115 1 1 0
7353 0 1 0 1.2562687872310714 11.835785225282747 16.167756330674774 1 1 0
6628 0 2 0 1.875800218939252 12.522855739271758 19.97852177667384 1 1 0
9755 0 1 0 4.459043601833929 18.173520319044446 15.532421776417376 1 1 0
6844 0 2 0 1.2265879497923533 17.07561884461694 22.09698437179598 1 2 0
11116 0 2 0 0.824507890208981 12.964029785126547 22.56894537563542 1 2 0
13187 0 1 0 2.416537654362747 18.331645698849343 18.168597364157097 1 1 0
9754 0 2 0 3.9737960186110586 17.316950993086927 15.467404346318906 1 1 0
2386 0 2 0 4.777043036956948 11.80083689028042 19.602741967363613 1 1 0
10138 0 2 0 1.8839991167728392 14.430565027558648 17.813738972689244 2 1 0
6630 0 1 0 1.9288278275879305 13.18917724054755 19.31403314876498 1 1 0
7351 0 2 0 0.7246368034074371 12.639841875538197 16.160495120929102 1 1 0
13188 0 1 0 1.2494781941920132 17.259248088079897 17.705069837913822 1 1 0
7039 0 2 0 3.9714124721656376 18.063078745093385 22.01849687933027 1 1 0
9756 0 1 0 3.1783923094122026 17.62740567809258 15.978351382679824 1 1 0
6846 0 1 0 0.8921520040717894 17.987778074088872 21.88541631871302 1 2 0
10140 0 1 0 1.1522965693132694 15.034351723936748 18.183298097918968 2 1 0
9477 0 1 0 3.430527651211552 15.006703775239865 17.693363040524726 1 1 0
7280 0 1 0 4.7117524611128925 10.839385285365962 21.474626854373657 1 1 0
8158 0 2 0 0.12398430059917682 9.866129028032159 22.716481718845323 1 1 0
2570 0 1 0 3.0619910638536516 13.411552639047507 23.236057052818193 1 1 0
11117 0 1 0 0.5077807926556827 12.082943006535814 22.87217412446725 1 2 0
2569 0 2 0 3.643592390600594 14.188507606008718 23.275735833926312 1 1 0
2571 0 1 0 3.2213890002763867 14.887612620024376 22.774568232387615 1 1 0
11118 0 1 0 0.08885230673611444 13.631273506773104 22.66656804822952 1 2 0
12939 0 1 0 1.0654097712139385 20.51123636589659 3.008025162382464 1 1 0
8514 0 1 0 3.5531967218786726 20.105077048187873 3.488046801591314 1 1 0
13626 0 1 0 4.296026039511935 22.690561853826843 6.774926729280989 1 2 0
8512 0 2 0 4.333054320992894 20.209150863168897 4.004120422375925 1 1 0
4672 0 2 0 0.9613373121092997 27.55836205718193 7.370291141777921 1 1 0
9322 0 2 0 0.9308784590427176 18.649848513842908 7.118309288221797 1 1 0
13625 0 1 0 2.8012547813242357 23.099763410666625 6.470011830840867 1 2 0
8513 0 1 0 3.984339981535613 20.767765862269535 4.751159262648974 1 1 0
2393 0 1 0 0.8294876052993334 26.457007097673785 3.5622016741503226 0 1 0
12938 0 1 0 1.0354052717571491 20.84811258514361 4.487281941372014 1 1 0
4674 0 1 0 0.932020048132578 26.55248925413948 7.118552151335377 1 1 0
12937 0 2 0 1.649917100967009 20.51025696843583 3.7967139785272814 1 1 0
2392 0 2 0 1.7715494581316316 26.537555234116116 3.1547703297059138 0 1 0
4000 0 2 0 1.6746467097932707 25.076833222171494 7.341316198886269 1 1 0
13624 0 2 0 3.360703696736781 22.28524636521228 6.617067636949163 1 2 0
13114 0 2 0 4.303554556928947 26.91568047354965 4.28789577814354 1 1 0
13116 0 1 0 3.386000423625142 26.667475326984295 3.9645108819901456 1 1 0
2394 0 1 0 1.973182478596742 25.840385240916987 2.5345194325932505 0 1 0
4673 0 1 0 0.026507984166755705 27.745153949839438 7.491367243439086 1 1 0
13545 0 1 0 1.7171366427186245 22.311207333132746 13.232485359101108 1 2 0
13544 0 1 0 2.8237109991031035 21.719785861725455 12.345172085175022 1 2 0
13543 0 2 0 2.6821815521389754 22.437913083016404 13.001964996369857 1 2 0
9367 0 2 0 4.22896500694676 25.256927747828428 12.976169354787968 1 1 0
8131 0 2 0 0.36266305171707997 22.99956470545258 9.992714545512962 1 1 0
7747 0 2 0 2.050450137901505 20.976809203666154 8.709424130820302 1 1 0
6059 0 1 0 2.6271739154043896 20.229288037414708 10.45132363783096 1 1 0
6058 0 2 0 2.7203204744370137 20.046047473455673 11.375888079077852 1 1 0
801 0 1 0 1.8933918116932562 18.683685640084988 11.85147354819583 0 1 0
7749 0 1 0 1.3787721115805458 21.64183925204568 8.947505844164688 1 1 0
7748 0 1 0 2.720924073606004 21.495350310370476 8.216089128332397 1 1 0
8685 0 1 0 4.709452780909066 27.59908465147104 11.219903087759947 1 1 0
1232 0 1 0 2.3931390849387992 27.690592497632593 10.46727414919213 1 1 0
10287 0 1 0 3.5252639816291844 21.35433179624108 14.507474320598263 1 1 0
10819 0 2 0 4.057539315731653 26.019120071217728 8.546472805334204 1 1 0
8683 0 2 0 3.8768918893835305 27.077266714727717 11.054060126382385 1 1 0
5640 0 1 0 1.4147576951417324 26.087041578310156 13.73222824971655 0 1 0
10821 0 1 0 4.210538471207767 27.020460729739764 8.294904777272443 1 1 0
8684 0 1 0 3.9684383378860875 26.398409036454307 11.790984966146796 1 1 0
5638 0 2 0 0.8442092390635703 25.35461716986773 13.650965615028811 0 1 0
6060 0 1 0 3.721147502809594 19.724816239678912 11.47062567557862 1 1 0
1436 0 1 0 0.33974019984859016 26.350678652418786 10.786891049711922 0 1 0
10820 0 1 0 3.9342206487867406 26.19524484511008 9.525560045023793 1 1 0
5639 0 1 0 0.5174458815566705 25.38731645593903 12.739679584862209 0 1 0
9369 0 1 0 4.810755067623194 24.94657282165991 13.786307219141277 1 1 0
9368 0 1 0 3.6879940763531462 24.486403486273133 12.724342602236598 1 1 0
8133 0 1 0 0.2858905079684118 23.971557243714063 10.018009766446466 1 1 0
8132 0 1 0 0.5661791476021921 22.783919905963074 10.914017128925165 1 1 0
10158 0 1 0 4.138453827072294 26.59330647081644 14.785295873728328 1 1 0
4002 0 1 0 2.474265848386518 25.316336340028617 7.832262095775212 1 1 0
10949 0 1 0 0.2223853552034285 18.86394342317391 13.092102573397272 1 2 0
9324 0 1 0 1.180585313799366 19.477739859926153 7.585448037981197 1 1 0
4001 0 1 0 1.3682298269784865 24.327880478754345 7.8651154510448045 1 1 0
900 0 1 0 1.0011967748627988 20.66370733818992 20.446696593080134 1 1 0
9394 0 2 0 1.9614875445035784 22.547227806255897 20.7849181294069 1 1 0
10403 0 1 0 2.5364649235657635 22.221263575837074 16.808446219818507 1 1 0
9396 0 1 0 2.928762397680995 22.536624922132802 20.973067963514584 1 1 0
10645 0 2 0 0.9829015261740555 21.353012490744817 15.917890842014963 1 1 0
9395 0 1 0 1.43832141369473 22.556063204215697 21.62263913002731 1 1 0
10646 0 1 0 0.5046779855395103 21.905528943428568 15.265224203568726 1 1 0
898 0 2 0 0.42833095721062375 19.873157058304507 20.58263810623028 1 1 0
10794 0 1 0 0.5125324438150748 25.375037051570708 18.613947856397903 1 2 0
10647 0 1 0 0.29604579173301804 20.999927018863225 16.53668185018568 1 1 0
10286 0 1 0 2.747452983604263 20.363466878388955 15.466606747995225 1 1 0
899 0 1 0 0.5422813267939749 19.393470355371495 19.791798475040345 1 1 0
3273 0 1 0 2.555104398245535 26.955366614675313 18.048121343574653 0 1 0
981 0 1 0 4.315362957425916 21.74348308681082 17.997244595477653 0 1 0
10693 0 2 0 4.60209925197916 23.18142860423091 20.941632386719093 1 1 0
10894 0 2 0 3.8532462416396362 26.97490869878789 21.757989801892293 1 1 0
9496 0 2 0 4.151050681244976 18.828795904997857 19.544100140366545 1 1 0
1599 0 1 0 0.5387055685840542 26.84963605189547 22.542736619947682 0 1 0
9497 0 1 0 4.363864350674856 19.798022133945704 19.361876777770917 1 1 0
3271 0 2 0 3.357190548958323 27.427992145646805 17.990249728452707 0 1 0
3486 0 1 0 0.6340393853992367 23.447659349605193 19.643327964669982 1 1 0
10402 0 2 0 3.0451635947691487 22.819702729922803 17.391960312729907 1 1 0
3272 0 1 0 3.588589712478677 27.49279482940257 17.08024375989934 0 1 0
10404 0 1 0 3.437997357906399 23.40114214269291 16.70459273235396 1 1 0
1571 0 1 0 4.152927712813321 25.99213770723501 18.519825655509827 0 1 0
10895 0 1 0 4.074762435265333 26.361542125361666 21.02923918440539 1 1 0
10792 0 2 0 0.4168737066198179 26.392209536229664 18.389622070986878 1 2 0
3484 0 2 0 0.42667595623256455 23.56847440064042 18.690013508482327 1 1 0
1598 0 1 0 1.7311890282736755 26.165674228077695 22.08061821655678 0 1 0
1597 0 2 0 0.8509379296168597 25.939214480206257 22.398526854963983 0 1 0
3485 0 1 0 1.2527482318398644 23.25174721313913 18.281258186783354 1 1 0
1570 0 2 0 4.608826163728579 25.401228832440594 19.066599265753254 0 1 0
10694 0 1 0 4.597412402661994 24.035832280918196 20.38182247618117 1 1 0
7040 0 1 0 4.134426682635027 18.541407626011893 21.17992263303755 1 1 0
10156 0 2 0 3.718064015172583 27.375716152861656 15.15468353412149 1 1 0
10285 0 2 0 3.6780525534344815 20.639300102389264 15.15220012258617 1 1 0
10056 0 1 0 0.9661503010140152 22.542292457288582 24.047186875795752 1 1 0
6856 0 2 0 3.20998244822198 20.066276453987978 23.99386330246635 1 1 0
9208 0 2 0 3.9870944690316295 23.040738976318703 24.799151755034057 1 1 0
6857 0 1 0 2.5607646125163357 20.508439962644527 23.459541597573562 1 1 0
6858 0 1 0 3.373169769578891 20.778944511356325 24.62156985846712 1 1 0
10054 0 2 0 0.8298389906103804 21.875929542351752 23.291879616542364 1 1 0
1397 0 1 0 0.8892963582773088 24.883130853564097 25.703300429888973 0 1 0
1398 0 1 0 1.5325328444714015 25.177392684144873 24.291137492209696 0 1 0
1396 0 2 0 1.3313585431118549 24.456861171948066 24.928467330270138 0 1 0
9210 0 1 0 4.404895608332311 23.455453337825002 24.031741519698848 1 1 0
9209 0 1 0 3.320531209734339 23.68810535395193 25.00582512269672 1 1 0
7041 0 1 0 3.7316517179770927 18.701600623673443 22.738697682504466 1 1 0
953 0 1 0 4.56547403037755 29.079711093993584 7.116000797357479 0 1 0
3408 0 1 0 4.299986364785289 32.62154401736274 3.7503957879936647 1 1 0
10451 0 1 0 1.9455241755944765 33.01629910418548 5.377003349372147 1 1 0
6136 0 2 0 2.702825998135608 29.985739995157154 5.920652185641448 1 2 0
6138 0 1 0 2.588660474072293 30.401611422951824 6.821781131742012 1 2 0
10452 0 1 0 2.3384844989404288 31.517764751411534 5.165009558723858 1 1 0
10450 0 2 0 1.7125013366733142 32.26326961855503 4.832661010503172 1 1 0
5419 0 2 0 1.4779584334262008 34.4969648113142 3.210498972082948 1 1 0
6137 0 1 0 2.184963561561975 29.112852075397758 5.9567758520585405 1 2 0
3285 0 1 0 0.27523376017105794 31.24932394171129 5.739855680762303 1 1 0
12730 0 2 0 3.773559874329993 36.35418185748876 2.363047400247337 1 1 0
1762 0 2 0 2.003016415993411 34.109032918734265 7.088030860683182 1 1 0
12732 0 1 0 3.1394366263365128 35.668138917373994 2.536501048689829 1 1 0
1764 0 1 0 1.4267628381731536 34.90844054468764 7.0201093558565075 1 1 0
13141 0 2 0 3.845879606231198 35.786123822254346 5.444515536410527 1 1 0
13143 0 1 0 3.7302420454624343 36.09451969367851 4.51391005618415 1 1 0
1516 0 2 0 1.0581287492400797 36.76524739088147 6.964579703071019 0 1 0
13142 0 1 0 4.078823587309373 34.8700771155949 5.322661033600715 1 1 0
5421 0 1 0 1.343036062425521 33.608007529082016 3.644806139171271 1 1 0
2566 0 2 0 0.6440032012514049 36.98126599869221 4.168278130173222 1 0 0
5420 0 1 0 1.0313471126389773 35.05323709229329 3.8111943565259487 1 1 0
13272 0 1 0 1.1681175656652438 29.279389261784065 14.123641903335564 1 1 0
13270 0 2 0 1.4499556440935248 28.33934140427699 13.849469959299622 1 1 0
7148 0 1 0 0.941819100380978 34.59403059532391 12.045157741869861 1 0 0
6611 0 1 0 1.1399643314404535 32.356039300207186 12.209070439577372 0 1 0
11254 0 2 0 0.3118612799806831 30.758877726563966 14.544439440307677 1 1 0
954 0 1 0 3.9245714292670377 29.445026445044903 8.441482423065224 0 1 0
1231 0 2 0 1.445476286850247 28.0711081705915 10.453220218161203 1 1 0
13271 0 1 0 1.6841560233736577 28.49929006122419 12.917940515643224 1 1 0
9670 0 2 0 1.1852544901857178 30.750991339087214 10.741039659307754 1 1 0
12855 0 1 0 4.476399487778768 33.90558371354209 12.546067215388367 1 1 0
1233 0 1 0 1.177085800693628 28.028126989650897 9.514296179721049 1 1 0
379 0 2 0 2.8859835536192655 31.06391568883476 8.651565594900525 0 1 0
9672 0 1 0 0.20708009529905116 30.721420337749358 10.581381658616612 1 1 0
9671 0 1 0 1.3783602484470998 29.76727810574962 10.797042247890298 1 1 0
6612 0 1 0 2.3395718848418983 32.97386531590683 13.019110435218021 0 1 0
12853 0 2 0 4.085775109637028 33.27140053840693 13.269652143091593 1 1 0
7147 0 2 0 0.4964210629298154 35.41694358182071 11.72282200413237 1 0 0
9574 0 2 0 2.8717775956604545 36.8801400868392 11.533264428254489 1 1 0
7149 0 1 0 1.2541140428533444 36.1151167129412 11.561323934969264 1 0 0
381 0 1 0 3.226212847853398 31.960535879420792 8.712017412388375 0 1 0
1763 0 1 0 1.450332237759762 33.552007118438276 7.722006004636911 1 1 0
3331 0 2 0 4.247138887637967 33.885956401055324 8.79579216978283 0 1 0
8972 0 1 0 0.1435901167371249 34.69776581774661 10.022069088196371 1 1 0
6610 0 2 0 1.333873037676169 33.02170021063991 12.815438917560877 0 1 0
380 0 1 0 2.1172100183167966 31.016803445113446 9.234591539347228 0 1 0
1488 0 1 0 4.308076122708918 35.68859678063188 11.405551668379832 0 1 0
1487 0 1 0 4.665844122995122 34.67565131640026 10.311851180814491 0 1 0
3488 0 1 0 4.593791799701332 31.544302505729274 14.678058013723081 1 1 0
952 0 2 0 4.401421715002602 28.721008740834094 8.010872145012229 0 1 0
12854 0 1 0 4.233176498754419 33.91361772108449 14.00122641992109 1 1 0
3333 0 1 0 3.6078890871375564 34.29619498583666 8.160292855831443 0 1 0
10157 0 1 0 2.9389046393368687 27.792652450617545 14.612215651508652 1 1 0
1518 0 1 0 0.4331608426882325 36.71621766920742 7.754496694868101 0 1 0
12586 0 2 0 1.0248269216973362 36.9657540276599 17.785871335689272 1 1 0
3260 0 1 0 0.6772950163865308 28.857705173149732 17.84413418213677 0 1 0
10301 0 1 0 4.235069574300421 31.997309915595757 19.711506785215043 1 1 0
10394 0 1 0 1.4422433109781183 30.726027983320243 21.992172949734293 1 1 0
4219 0 2 0 3.5242104800057055 29.149857403638137 20.22635039277473 0 1 0
11172 0 1 0 0.32690217962040485 27.98063378512039 19.594932710267994 1 1 0
6724 0 2 0 3.0099783971024134 31.191181636649514 17.355326032108305 1 1 0
3489 0 1 0 3.963080667671741 30.90989284310591 15.972735233038277 1 1 0
6725 0 1 0 2.279378346251569 31.66708724341613 16.939441959554788 1 1 0
6726 0 1 0 2.669508303822355 30.24131136518118 17.454347283686275 1 1 0
4220 0 1 0 4.0113290008232525 30.05509849070313 20.255002987520605 0 1 0
4221 0 1 0 3.8443708409726884 28.775347695849433 19.40225423696833 0 1 0
6509 0 1 0 1.9229166671033802 32.87681818263403 20.22372989658265 1 1 0
10393 0 2 0 0.9025855255377491 30.964001873984365 21.205004693297276 1 1 0
9903 0 1 0 3.9102460497243103 34.4459179829229 20.703333607517763 1 1 0
3259 0 2 0 0.9855982173259491 29.359006580033668 17.067013444106927 0 1 0
9901 0 2 0 4.530909507476451 35.05871461345285 21.10682533886439 1 1 0
6508 0 2 0 2.7034951451832296 33.209071088155895 19.770424312070826 1 1 0
10339 0 2 0 2.1402940531888044 34.579935532302265 17.317884494517028 1 1 0
10340 0 1 0 1.5646857184367629 34.05799757464032 16.72194529166706 1 1 0
3261 0 1 0 1.2061565051302405 28.661325832937703 16.454223678077113 0 1 0
10341 0 1 0 1.7622360789014868 35.468780499847135 17.485588614027648 1 1 0
10896 0 1 0 3.53163453246949 27.80494099372549 21.208281154856035 1 1 0
10988 0 1 0 3.858752490895457 36.62207644346028 21.01410139259654 1 1 0
559 0 2 0 0.49981900564388315 32.81363382863675 16.00712379396431 1 1 0
6510 0 1 0 2.3505208006261817 33.701033833909456 19.001694794238198 1 1 0
9543 0 1 0 3.9163518824074437 35.08998959679153 17.44321952958221 1 1 0
11171 0 1 0 0.478578686652178 29.464842156701337 20.33424421107794 1 1 0
9687 0 1 0 0.48609488290631486 35.02773072175345 22.470848432818485 1 1 0
12588 0 1 0 0.1556725985798605 36.90717283997779 17.376697453820274 1 1 0
560 0 1 0 0.0010755449629016312 33.672086042028916 15.918718313754825 1 1 0
561 0 1 0 0.5214532195000712 32.325666878942734 15.217059851284112 1 1 0
10374 0 1 0 2.3677118285744143 36.837100940159424 25.43181665983699 1 1 0
12666 0 1 0 4.007183209490326 36.44719135013665 23.89660221767611 1 1 0
2672 0 1 0 1.5651616677527758 29.793677874229274 24.168232897466737 1 0 0
10372 0 2 0 1.412565692726593 36.64426655080263 25.373977558383782 1 1 0
2671 0 2 0 2.1718514126218404 30.28272096676105 23.635433292024583 1 0 0
2673 0 1 0 3.0874996462862785 30.203650614915365 23.973719249318243 1 0 0
6490 0 2 0 1.1305338857050578 33.13199885755317 23.7879095871493 1 1 0
1662 0 1 0 3.731052665036477 34.44113886140615 22.97505920830551 0 2 0
1661 0 1 0 4.457111875010635 34.235414071539815 24.246083318826784 0 2 0
6491 0 1 0 1.4495360940241868 32.266762571314366 23.52805666516661 1 1 0
1660 0 2 0 3.6910041203421686 34.73001642152606 23.930531521111167 0 2 0
9685 0 2 0 0.4457771882008879 35.992449963852735 22.728820272922622 1 1 0
6492 0 1 0 2.009939655153761 33.60478220965172 23.905952130244497 1 1 0
9686 0 1 0 0.8861955241813971 36.0827972788991 23.60434199673354 1 1 0
1801 0 2 0 0.08202020476969417 28.675014940297643 25.02254704452618 1 1 0
2872 0 2 0 2.274823020276559 38.84673772252429 2.570833577005369 0 1 0
2156 0 1 0 2.9354481387130624 41.425841943539574 4.696298535488678 1 1 0
8115 0 1 0 1.4410728119400726 42.120729039129984 7.215111910302513 1 1 0
160 0 2 0 2.185936383474586 43.644065301977186 1.7554162533973061 0 1 0
2874 0 1 0 2.8247638352587248 39.46595808305512 3.105733956220029 0 1 0
2157 0 1 0 4.184489395925415 40.3617612701635 4.627457882437134 1 1 0
161 0 1 0 2.3644144870053863 43.75196890154805 2.672525235282989 0 1 0
2155 0 2 0 3.4228598384211906 40.80525281863057 4.134456523399947 1 1 0
2873 0 1 0 1.8587837235497349 39.438638902665616 1.9999441067847445 0 1 0
10748 0 1 0 2.841612553649795 44.11133846119123 4.996233353998902 1 1 0
2567 0 1 0 1.2586859866392304 37.588961671358334 3.7120733198966582 1 0 0
10747 0 2 0 1.9240868375297524 44.19870434853596 4.649998530517094 1 1 0
10749 0 1 0 1.390386257741345 43.62107413378251 5.232406812468489 1 1 0
162 0 1 0 2.9187927225529826 44.03018576576206 1.2767047549529917 0 1 0
8114 0 1 0 3.0243773692896068 41.71063320678068 7.371512640177746 1 1 0
8113 0 2 0 2.346051164326785 42.35435408735039 6.990537414831274 1 1 0
4649 0 1 0 4.788937870162624 45.18213738960337 5.7102167474655525 1 1 0
6666 0 1 0 1.134129416938481 45.678613938946405 4.398453881038844 1 1 0
12527 0 1 0 0.49848601052202357 44.44565994896721 1.5495902668575985 1 1 0
6665 0 1 0 0.14042026962230733 46.29071079136816 3.3440858809894967 1 1 0
6299 0 1 0 4.434487534838302 46.100443572921186 0.9161495068992878 1 1 0
1223 0 1 0 2.2895763665064806 46.158282032845136 2.588183519694038 0 1 0