LAMMPS (4 Feb 2025)
OMP_NUM_THREADS environment is not set. Defaulting to 1 thread. (src/comm.cpp:99)
  using 1 OpenMP thread(s) per MPI task
# LAMMPS script for running NVT simulation

units       metal
dimension   3
boundary    p p p
atom_style  full
atom_modify map yes

newton      on

read_data   ../start.lammps-data
Reading data file ...
  orthogonal box = (0 0 0) to (153.69998 147.89788 151.07317)
  16 by 8 by 8 MPI processor grid
  reading atoms ...
  11640 atoms
  reading velocities ...
  11640 velocities
Finding 1-2 1-3 1-4 neighbors ...
  special bond factors lj:    0        0        0       
  special bond factors coul:  0        0        0       
     0 = max # of 1-2 neighbors
     0 = max # of 1-3 neighbors
     0 = max # of 1-4 neighbors
     1 = max # of special neighbors
  special bonds CPU = 6.019 seconds
  read_data CPU = 6.201 seconds

pair_style  symmetrix/mace
pair_coeff  * * ../../../00-common/models/ch2o-dens-inv_swa-1-6-8.json C H O
Loading MACE model from '../../../00-common/models/ch2o-dens-inv_swa-1-6-8.json' ... success
  mapping LAMMPS type 1 (C) to MACE type 1
  mapping LAMMPS type 2 (H) to MACE type 0
  mapping LAMMPS type 3 (O) to MACE type 2

variable t equal step

group graphene type 1
8640 atoms in group graphene
group H2O type 2 3
3000 atoms in group H2O

thermo 1000

######### NVT equilibration for 80 ps #############

dump DUMP1 all atom 100 nvt_equi.lammpstrj
timestep 0.001
fix NVT1 graphene nvt temp 300 300 0.1
fix NVT2 H2O nvt temp 300 300 0.1
run 80000
Neighbor list info ...
  update: every = 1 steps, delay = 0 steps, check = yes
  max neighbors/atom: 2000, page size: 100000
  master list distance cutoff = 8
  ghost atom cutoff = 8
  binsize = 4, bins = 39 37 38
  1 neighbor lists, perpetual/occasional/extra = 1 0 0
  (1) pair symmetrix/mace, perpetual
      attributes: full, newton on
      pair build: full/bin
      stencil: full/bin/3d
      bin: standard
Per MPI rank memory allocation (min/avg/max) = 5.921 | 6.239 | 8.664 Mbytes
   Step          Temp          E_pair         E_mol          TotEng         Press     
         0   78.173347     -1810210        0             -1810092.4      649.10981    
      1000   87.191629     -1810202.5      0             -1810071.3      436.81813    
      2000   188.14466     -1810081        0             -1809798       -774.32878    
      3000   306.18325     -1809966        0             -1809505.4     -944.67046    
      4000   300.12967     -1809941.8      0             -1809490.3     -1164.2209    
      5000   299.66737     -1809942        0             -1809491.2     -882.88625    
      6000   303.91109     -1809941.5      0             -1809484.3     -814.55082    
      7000   289.74869     -1809941.7      0             -1809505.8     -734.37125    
      8000   309.20314     -1809923.7      0             -1809458.6     -806.57388    
      9000   292.87214     -1809927.8      0             -1809487.2     -819.37274    
     10000   293.28722     -1809936.7      0             -1809495.4     -657.81276    
     11000   301.32473     -1809928.4      0             -1809475.1     -705.49711    
     12000   294.64286     -1809927.8      0             -1809484.5     -600.16087    
     13000   299.2299      -1809940.8      0             -1809490.6     -528.47262    
     14000   300.4733      -1809923.2      0             -1809471.1     -467.38616    
     15000   304.20485     -1809921.7      0             -1809464       -438.92448    
     16000   297.25568     -1809933.5      0             -1809486.3     -394.066      
     17000   298.82249     -1809926.8      0             -1809477.2     -392.95945    
     18000   304.78034     -1809918.6      0             -1809460.1     -381.81681    
     19000   302.19991     -1809923        0             -1809468.4     -261.06045    
     20000   297.87959     -1809930.9      0             -1809482.7     -226.29369    
     21000   301.20924     -1809914.7      0             -1809461.5     -290.9798     
     22000   303.73438     -1809920.9      0             -1809463.9     -169.7111     
     23000   295.43379     -1809927.2      0             -1809482.7     -126.6561     
     24000   299.64345     -1809915.2      0             -1809464.4     -275.86046    
     25000   299.54796     -1809918.7      0             -1809468.1     -182.02184    
     26000   300.74845     -1809930.7      0             -1809478.2     -169.45624    
     27000   298.18522     -1809915.6      0             -1809467       -45.491532    
     28000   296.79835     -1809921.1      0             -1809474.5     -45.752927    
     29000   299.32501     -1809921        0             -1809470.7      20.945126    
     30000   296.15093     -1809921.8      0             -1809476.2     -73.766069    
     31000   297.62844     -1809925.2      0             -1809477.4     -57.33574     
     32000   300.50069     -1809924        0             -1809471.9     -73.241485    
     33000   298.47826     -1809921.5      0             -1809472.4      16.177666    
     34000   297.81767     -1809924.3      0             -1809476.3      44.442264    
     35000   299.6163      -1809919.5      0             -1809468.7      25.061062    
     36000   298.48365     -1809926.2      0             -1809477.2      17.475369    
     37000   300.53493     -1809929.5      0             -1809477.4      13.942769    
     38000   301.32026     -1809922.6      0             -1809469.3     -11.828846    
     39000   299.25225     -1809925.2      0             -1809475        81.233503    
     40000   302.04467     -1809926.2      0             -1809471.7      148.19414    
     41000   303.71817     -1809921.2      0             -1809464.2      120.57957    
     42000   300.53327     -1809921.1      0             -1809469        118.34224    
     43000   299.39716     -1809921.2      0             -1809470.7      133.95119    
     44000   300.88982     -1809924.1      0             -1809471.5      172.35772    
     45000   297.62338     -1809926.4      0             -1809478.7      164.00183    
     46000   301.71778     -1809926.2      0             -1809472.3      37.895245    
     47000   301.50625     -1809924.9      0             -1809471.3      20.89559     
     48000   301.26747     -1809924.3      0             -1809471        42.24058     
     49000   298.06495     -1809928.1      0             -1809479.7      17.229016    
     50000   298.12948     -1809930.9      0             -1809482.4      30.219276    
     51000   300.12247     -1809932.9      0             -1809481.3      55.658872    
     52000   299.36339     -1809927.1      0             -1809476.7      88.994307    
     53000   301.71704     -1809923.9      0             -1809470        88.348546    
     54000   297.09135     -1809929.2      0             -1809482.3      105.09601    
     55000   301.90544     -1809927.3      0             -1809473.1      87.075125    
     56000   301.51358     -1809927.5      0             -1809473.9      58.682872    
     57000   299.33769     -1809929.3      0             -1809479        27.024896    
     58000   298.58889     -1809930.2      0             -1809481        96.646491    
     59000   301.9509      -1809925.8      0             -1809471.5      144.99908    
     60000   298.04393     -1809924.5      0             -1809476.1      182.41547    
     61000   297.64436     -1809927.8      0             -1809480        108.07109    
     62000   300.40842     -1809928.3      0             -1809476.4      47.555282    
     63000   297.41995     -1809926.5      0             -1809479        100.76545    
     64000   298.04389     -1809928.4      0             -1809480        99.162812    
     65000   301.30769     -1809926        0             -1809472.7      79.480938    
     66000   300.13461     -1809926.1      0             -1809474.5      104.12268    
     67000   302.75717     -1809928.6      0             -1809473.1      106.53548    
     68000   304.16769     -1809929.5      0             -1809471.9      109.22182    
     69000   300.16707     -1809922.7      0             -1809471.1      99.761031    
     70000   300.56213     -1809928.2      0             -1809476        103.2126     
     71000   296.4468      -1809927.2      0             -1809481.2      64.830553    
     72000   302.34561     -1809933.8      0             -1809478.9      30.668994    
     73000   302.00553     -1809924.8      0             -1809470.5      60.245729    
     74000   296.50998     -1809933.4      0             -1809487.3      41.157867    
     75000   298.2988      -1809931.9      0             -1809483.1      70.338449    
     76000   297.64635     -1809930.7      0             -1809483        96.858638    
     77000   301.25758     -1809925.6      0             -1809472.3      122.13986    
     78000   299.70802     -1809927.2      0             -1809476.3      129.60264    
     79000   302.00024     -1809925.6      0             -1809471.3      53.449552    
     80000   298.52767     -1809929.8      0             -1809480.6      73.903535    
Loop time of 60136.1 on 1024 procs for 80000 steps with 11640 atoms

Performance: 0.115 ns/day, 208.806 hours/ns, 1.330 timesteps/s, 15.485 katom-step/s
100.0% CPU use with 1024 MPI tasks x 1 OpenMP threads

MPI task timing breakdown:
Section |  min time  |  avg time  |  max time  |%varavg| %total
---------------------------------------------------------------
Pair    | 1302.2     | 5714.6     | 25040      |6690.5 |  9.50
Bond    | 0.0050133  | 0.012631   | 0.064094   |   9.8 |  0.00
Neigh   | 0.14871    | 0.47624    | 2.7004     |  75.2 |  0.00
Comm    | 27.218     | 2156.5     | 8418.7     |3812.0 |  3.59
Output  | 10.016     | 14.571     | 19.696     |  78.2 |  0.02
Modify  | 31218      | 52238      | 58741      |2751.3 | 86.87
Other   |            | 12.25      |            |       |  0.02

Nlocal:        11.3672 ave         299 max           0 min
Histogram: 888 3 113 5 1 1 5 4 1 3
Nghost:        77.7441 ave        1587 max           0 min
Histogram: 811 145 42 7 5 6 4 2 0 2
Neighs:              0 ave           0 max           0 min
Histogram: 1024 0 0 0 0 0 0 0 0 0
FullNghs:      1220.18 ave       58049 max           0 min
Histogram: 985 22 2 1 2 5 3 0 1 3

Total # of neighbors = 1249464
Ave neighs/atom = 107.34227
Ave special neighs/atom = 0
Neighbor list builds = 3776
Dangerous builds = 0

write_restart nvt_equi.restart.*
System init for write_restart ...
write_data nvt_equi_final.lammps-data
System init for write_data ...

Total wall time: 16:42:42
