LAMMPS data file via write_data, version 4 Feb 2025, timestep = 80000, units = metal

11640 atoms
3 atom types

0 153.69998399999997 xlo xhi
0 147.89787856140197 ylo yhi
0 151.07316997686289 zlo zhi

Masses

1 12.01099999691024
2 1.007999999740698
3 15.99899999588435

Atoms # full

4344 0 1 0 5.4387078475297805 2.910723135528682 27.634462863458452 1 0 1
4340 0 1 0 5.377596882203969 0.4678035234581169 27.62609304889621 1 0 1
4339 0 1 0 3.912898666956284 0.47037026753016126 27.70778990268983 1 0 1
4343 0 1 0 4.008526852810163 2.934453123962849 27.669748065737547 1 0 1
4338 0 1 0 3.253885876593222 1.692560384343855 27.670153431818825 1 0 1
4342 0 1 0 3.3216139174733597 4.238949729146879 27.805425164403875 1 0 1
4341 0 1 0 1.8805682583552963 4.1677303409677355 27.87839559194284 1 0 1
4337 0 1 0 1.7968233895216397 1.7039468191689255 27.734556000025417 1 0 1
4104 0 1 0 1.1077328975456604 2.9500976082955224 27.760933505945406 1 0 1
4100 0 1 0 1.113444728488439 0.45529459754822854 27.83490217092551 1 0 1
4581 0 1 0 6.144389565729098 4.158595337355411 27.62849074904401 1 0 1
4577 0 1 0 6.150242314812012 1.7058176948444503 27.54832006624157 1 0 1
4582 0 1 0 7.553917755218181 4.144574411362961 27.583701908544036 1 0 1
4578 0 1 0 7.576804645395974 1.6770663116478077 27.58054343656806 1 0 1
4583 0 1 0 8.302845658498374 2.9160469383938845 27.619188223785684 1 0 1
4357 0 1 0 1.8929893790087495 14.072241118782374 28.843463286144495 1 0 1
4579 0 1 0 8.240988798068123 0.43037754338922546 27.56929906453166 1 0 1
4601 0 1 0 6.19022754000547 16.40954709953126 28.966319181603197 1 0 1
4603 0 1 0 8.360505926827248 15.22654901692503 28.76136200066694 1 0 1
4364 0 1 0 5.437869093091252 15.177455842661864 28.850526870076276 1 0 1
4348 0 1 0 5.476729298438928 5.392066086606809 27.828444339688645 1 0 1
4352 0 1 0 5.444203018890388 7.846387208224371 28.01240995686451 1 0 1
4351 0 1 0 4.05985185700163 7.867743251718327 28.176589599633946 1 0 1
4347 0 1 0 4.059496093969475 5.433043949272916 28.009079851486355 1 0 1
4346 0 1 0 3.359336121301798 6.632211289848063 28.111567675372246 1 0 1
4350 0 1 0 3.355551119929161 9.042314810009831 28.443124390898337 1 0 1
4349 0 1 0 1.93061424314982 9.07800921561066 28.53757567810972 1 0 1
4345 0 1 0 1.918116064070308 6.621604426881692 28.192491440607697 1 0 1
4112 0 1 0 1.2091039347599386 7.861789439125787 28.315674490578363 1 0 1
4108 0 1 0 1.216337595274567 5.421570926028358 27.99058950602944 1 0 1
4585 0 1 0 6.171963118618462 6.629311908781902 27.85365361241914 1 0 1
4586 0 1 0 7.5518556996969135 6.6556433533609995 27.78494889045681 1 0 1
4591 0 1 0 8.312581724386435 7.85367710546229 27.917132498186234 1 0 1
4128 0 1 0 1.2356867375168672 17.72702239562857 28.886098048790835 1 0 1
4587 0 1 0 8.26940083511874 5.399268263255911 27.727140870308755 1 0 1
4597 0 1 0 6.21040297968025 13.969789615471774 28.760021170027507 1 0 1
4361 0 1 0 1.8918013562542955 16.48648511860696 28.89944336265199 1 0 1
4602 0 1 0 7.6442585139812715 16.426561080784502 28.942703086502448 1 0 1
4589 0 1 0 6.12147935650455 9.097659753308418 28.06271155422902 1 0 1
4590 0 1 0 7.564249224476163 9.112240910362171 28.076938428605395 1 0 1
4355 0 1 0 4.054226902320373 10.288509854914974 28.473476965443414 1 0 1
4356 0 1 0 5.42404253364493 10.357062067352212 28.326522834885278 1 0 1
4360 0 1 0 5.515921212219454 12.759901246785402 28.71987725072777 1 0 1
4359 0 1 0 4.069510262008764 12.779260944984863 28.71649344320436 1 0 1
4354 0 1 0 3.313171716223431 11.529452507811612 28.646711261050413 1 0 1
4353 0 1 0 1.8496770555337076 11.562524979081164 28.688581720517874 1 0 1
4116 0 1 0 1.2230753288564087 10.298422515466314 28.60397554779424 1 0 1
4120 0 1 0 1.1961954259814724 12.813529224402918 28.74607253362983 1 0 1
4124 0 1 0 1.1541962343924244 15.29193906635968 28.86891288055285 1 0 1
4593 0 1 0 6.209700459106249 11.553773594618551 28.53237225562567 1 0 1
4594 0 1 0 7.629725709295694 11.536118923800553 28.450986296556906 1 0 1
4599 0 1 0 8.368163457747315 12.742080296320012 28.587254545064262 1 0 1
4595 0 1 0 8.289759437020534 10.309973849828491 28.18463041994391 1 0 1
4607 0 1 0 8.311502349332999 17.678848747032372 29.051670961010245 1 0 1
4598 0 1 0 7.67010667884609 13.947951036249991 28.712824871643914 1 0 1
4368 0 1 0 5.484907141075732 17.642056626758894 29.16185228253291 1 0 1
4358 0 1 0 3.304090942870613 14.006043303063501 28.83786866791208 1 0 1
4362 0 1 0 3.3201280629250927 16.439279451551165 28.961157448460128 1 0 1
4367 0 1 0 4.012592331214867 17.702582419841818 29.13851621462255 1 0 1
4363 0 1 0 4.021138852569495 15.210432698621876 28.941165422584643 1 0 1
4372 0 1 0 5.455402754053898 20.155122070429652 29.233338718241097 1 0 1
4376 0 1 0 5.510699458032172 22.66893201318498 29.270802060643362 1 0 1
4375 0 1 0 4.065124253784441 22.653001676908342 29.284654156560293 1 0 1
4371 0 1 0 4.049481721213375 20.20343949568738 29.09569936477297 1 0 1
4370 0 1 0 3.32712925126582 21.447469148650388 29.110163601585313 1 0 1
4366 0 1 0 3.3872893381877582 18.97313604780636 29.066826890529153 1 0 1
4365 0 1 0 1.9463551089946198 18.91859000119849 28.934855061307314 1 0 1
4369 0 1 0 1.931636515004271 21.41886268945004 29.139824545010395 1 0 1
4132 0 1 0 1.2530493493653572 20.191174669067582 29.047949601003623 1 0 1
4136 0 1 0 1.1929327052955998 22.65986461530934 29.316242989141365 1 0 1
4605 0 1 0 6.18298210541467 18.89680140537453 29.176451429697966 1 0 1
4609 0 1 0 6.2061719125527315 21.400766879225024 29.306594582432837 1 0 1
4610 0 1 0 7.640132352339634 21.367089833811992 29.21964794472308 1 0 1
4606 0 1 0 7.646326075684075 18.918314331027904 29.160428938514556 1 0 1
4615 0 1 0 8.329367735571344 22.651224332705585 29.068864529832123 1 0 1
4611 0 1 0 8.337012308666745 20.146983917042874 29.130321530224755 1 0 1
4634 0 1 0 7.649616096087745 36.19479908003736 27.878457175743982 1 0 1
4156 0 1 0 1.2954663368935835 34.95570427197688 28.04975018222629 1 0 1
4393 0 1 0 1.9952088718231356 36.187982016234756 28.010272315597945 1 0 1
4391 0 1 0 4.054673375460342 32.45100043792212 28.003825550408965 1 0 1
4380 0 1 0 5.5354419420217145 25.138286196457553 29.199095024591873 1 0 1
4379 0 1 0 4.113266464249638 25.127157626325513 29.33879855198356 1 0 1
4374 0 1 0 3.363587559599443 23.912214111798953 29.33693540676139 1 0 1
4378 0 1 0 3.3997713065267883 26.355720175385255 29.28206816696759 1 0 1
4384 0 1 0 5.49251339668416 27.59732293006813 28.845732083256436 1 0 1
4383 0 1 0 4.098348663588833 27.572983581579507 29.004129610007055 1 0 1
4377 0 1 0 1.9686737719134357 26.384792997263887 29.152435045564218 1 0 1
4373 0 1 0 1.939197625492063 23.904317571686736 29.325299955092042 1 0 1
4140 0 1 0 1.1920755250434285 25.13028985504546 29.234386691198676 1 0 1
4144 0 1 0 1.2331617784071938 27.597448392760004 28.915597175433437 1 0 1
4617 0 1 0 6.207628442622434 26.379826338739285 29.045418311646724 1 0 1
4613 0 1 0 6.240983434058661 23.889542235691305 29.21955540171942 1 0 1
4618 0 1 0 7.623818459523943 26.35017439480875 28.873249003940803 1 0 1
4614 0 1 0 7.664309653620556 23.871497566430808 29.038510482915058 1 0 1
4619 0 1 0 8.413043104017854 25.1427771146413 29.023489669875936 1 0 1
4389 0 1 0 1.921595349260178 33.71424591255761 28.12082023775978 1 0 1
4633 0 1 0 6.221825413027196 36.169591076182535 27.89795593630251 1 0 1
4635 0 1 0 8.348519831926472 34.938407742250995 27.899138172193794 1 0 1
4623 0 1 0 8.329220833426083 27.558276816755576 28.6593417525187 1 0 1
4629 0 1 0 6.19490582127774 33.69122307514213 27.90066954187824 1 0 1
4388 0 1 0 5.491193225292444 30.03043679005847 28.316043418419575 1 0 1
4387 0 1 0 4.05181940564114 30.02603601366472 28.433743692086583 1 0 1
4386 0 1 0 3.3164773946943207 31.239844912178143 28.280967948760267 1 0 1
4382 0 1 0 3.383761987047757 28.789268548810767 28.760818500397015 1 0 1
4385 0 1 0 1.8965692569382242 31.227067482115427 28.324452657690717 1 0 1
4381 0 1 0 1.963149451338827 28.771036757662458 28.748992499494598 1 0 1
4148 0 1 0 1.230957996348094 30.00159901513803 28.618908435422387 1 0 1
4621 0 1 0 6.191306148643133 28.782967457459467 28.58110132727702 1 0 1
4625 0 1 0 6.200600168843214 31.21090951994758 28.115461713896956 1 0 1
4622 0 1 0 7.618711547177755 28.799661757136526 28.53536203963418 1 0 1
4626 0 1 0 7.624494653737877 31.216455070251882 28.06064522005154 1 0 1
4627 0 1 0 8.349622160364486 29.98231777905408 28.260536262288603 1 0 1
4631 0 1 0 8.307437692140386 32.46272360521769 27.971699479479927 1 0 1
4152 0 1 0 1.1758216713070613 32.49150459715167 28.159328723281707 1 0 1
4630 0 1 0 7.6143850012729795 33.665023622482586 27.88002979646864 1 0 1
4394 0 1 0 3.411627557790925 36.19545591601053 28.109215316182613 1 0 1
4395 0 1 0 4.111814850208976 34.954688366612615 27.944107094711583 1 0 1
4396 0 1 0 5.486530549815824 34.9438717027126 27.96089771859243 1 0 1
4390 0 1 0 3.3958916107138517 33.69081247456175 27.980292315968693 1 0 1
4392 0 1 0 5.477917946855208 32.44604557816264 28.021362792826956 1 0 1
4400 0 1 0 5.530773988480748 37.43621546745907 27.933079482268667 1 0 1
4404 0 1 0 5.562611348910442 39.92811636309622 27.870911381939848 1 0 1
4399 0 1 0 4.138313307780606 37.453331298150744 28.0820892762773 1 0 1
4398 0 1 0 3.482350342769633 38.71818654428867 27.979694103960377 1 0 1
4403 0 1 0 4.155953911801421 39.94474841001741 27.948303757192267 1 0 1
4402 0 1 0 3.441268780986818 41.14740788557523 27.916507893832012 1 0 1
4160 0 1 0 1.323765224759956 37.47613057753084 28.013289598076515 1 0 1
4164 0 1 0 1.3373430820602068 39.92211522308301 27.99848394113523 1 0 1
4397 0 1 0 2.0640521800351914 38.73314447814127 27.97269881950745 1 0 1
4401 0 1 0 2.0098430525929265 41.15202322353658 27.968503105277208 1 0 1
4637 0 1 0 6.336538457441631 38.66930636937067 27.83398634324235 1 0 1
4641 0 1 0 6.269436174347546 41.13741593924882 27.797029259743454 1 0 1
4642 0 1 0 7.717878355619806 41.129261011963784 27.806542459949345 1 0 1
4643 0 1 0 8.457390835073266 39.906514157639705 27.7230408878254 1 0 1
4184 0 1 0 1.3441030541374999 52.261078656980985 27.396826033854055 1 0 1
4638 0 1 0 7.724940842916079 38.64393940214138 27.6934703648429 1 0 1
4417 0 1 0 2.0633427665550355 51.05399533205805 27.54078725330517 1 0 1
4639 0 1 0 8.370375851853272 37.44925498416948 27.768795010781957 1 0 1
4408 0 1 0 5.542494472465936 42.390992003910114 27.83754528682839 1 0 1
4412 0 1 0 5.598606096916068 44.866016534698645 27.798990696375277 1 0 1
4407 0 1 0 4.117747935700118 42.42450570343432 27.91966870315683 1 0 1
4411 0 1 0 4.2054826669992655 44.85672146996603 27.776228496471695 1 0 1
4406 0 1 0 3.497242860240284 43.67236871054632 27.818430611220684 1 0 1
4410 0 1 0 3.4216552161511706 46.11755811764093 27.74257210580942 1 0 1
4409 0 1 0 2.038298268985667 46.13220562285284 27.718553576970383 1 0 1
4168 0 1 0 1.3739943068088953 42.39913769969564 27.974446371833974 1 0 1
4405 0 1 0 2.029043689336257 43.67541688512272 27.823066426399908 1 0 1
4172 0 1 0 1.325962975769027 44.914699159821694 27.68877496216024 1 0 1
4645 0 1 0 6.263990871497419 43.62263883742449 27.780569553154894 1 0 1
4649 0 1 0 6.345059774159996 46.11939745180582 27.79924296869304 1 0 1
4646 0 1 0 7.696490975079348 43.5822086732207 27.765533371464464 1 0 1
4188 0 1 0 1.3822212146293573 54.730893502512544 27.094680107545294 1 0 1
4662 0 1 0 7.776812450508347 53.467674692461166 27.53105506687548 1 0 1
4647 0 1 0 8.409653600926656 42.36611997955924 27.67366016870167 1 0 1
4657 0 1 0 6.34669622689593 51.038277067203516 27.606462314763505 1 0 1
4651 0 1 0 8.44826483028461 44.79971638238193 27.777064484832696 1 0 1
4650 0 1 0 7.7433991221191 46.07414416587061 27.710961518357784 1 0 1
4667 0 1 0 8.522996464502791 54.698468207555145 27.59181034093901 1 0 1
4416 0 1 0 5.577842304208656 47.33230168406367 27.70253349852652 1 0 1
4420 0 1 0 5.650412960143259 49.80812317402933 27.69996522915187 1 0 1
4419 0 1 0 4.215032488004258 49.833058225799725 27.682861961474874 1 0 1
4415 0 1 0 4.1649681277274855 47.34532319720874 27.75150123156837 1 0 1
4414 0 1 0 3.461997943116008 48.60743312177958 27.73392384437268 1 0 1
4413 0 1 0 2.022619836321969 48.62301781845127 27.699840127052575 1 0 1
4180 0 1 0 1.2629261280457398 49.82135880112155 27.60486149159232 1 0 1
4176 0 1 0 1.3356011713591853 47.38127083321818 27.690237847607506 1 0 1
4653 0 1 0 6.315173999197231 48.52691132837216 27.68052797070305 1 0 1
4654 0 1 0 7.722741294701236 48.555453034022904 27.691891380759337 1 0 1
4658 0 1 0 7.747860178188024 50.99408641696178 27.724800059712237 1 0 1
4661 0 1 0 6.365485055662938 53.49280565642182 27.42715587871336 1 0 1
4663 0 1 0 8.470332179126988 52.23050951617051 27.645587506896977 1 0 1
4655 0 1 0 8.465543435463768 47.3488974224616 27.76049534473047 1 0 1
4659 0 1 0 8.507900154061547 49.767695996986205 27.777926696906256 1 0 1
4423 0 1 0 4.231466918462273 52.27607772143247 27.46949679242524 1 0 1
4427 0 1 0 4.206878630523643 54.76864518576781 27.0822008285982 1 0 1
4424 0 1 0 5.618674091124215 52.23490724879093 27.482014598845108 1 0 1
4422 0 1 0 3.496282910725466 53.53248650602738 27.294574486607754 1 0 1
4418 0 1 0 3.5198885475643222 51.03824187442271 27.66310481424836 1 0 1
4428 0 1 0 5.644438849680187 54.75174372994684 27.27853765507942 1 0 1
4421 0 1 0 2.0636438833143016 53.49175560078048 27.16775152382227 1 0 1
4436 0 1 0 5.6361719648750235 59.70868836681901 27.251928599550922 1 0 1
4432 0 1 0 5.588061375809758 57.25078769812665 27.174898171933023 1 0 1
4430 0 1 0 3.5210100001441575 58.47892508708428 27.02876190850831 1 0 1
4435 0 1 0 4.261353012565349 59.71232856868388 27.012101116014883 1 0 1
4426 0 1 0 3.4761983835433963 56.0088880352095 27.053427495181392 1 0 1
4431 0 1 0 4.221926987332391 57.25064581987015 27.014198879626402 1 0 1
4429 0 1 0 2.139553754299557 58.40760458833217 26.98455577742554 1 0 1
4425 0 1 0 2.0832276705463624 55.973648240971116 27.02608108009921 1 0 1
4192 0 1 0 1.4268612957661793 57.18967802185455 26.95916774592886 1 0 1
4196 0 1 0 1.4081688125509912 59.65631598111211 26.8535984170406 1 0 1
4669 0 1 0 6.37850464895812 58.50777863244495 27.337561113149455 1 0 1
4665 0 1 0 6.299742048803758 56.02049121009939 27.310426841735154 1 0 1
4670 0 1 0 7.806141528761844 58.44052927552086 27.505107447493778 1 0 1
4666 0 1 0 7.773809015965248 55.918206178636765 27.552491442813526 1 0 1
4690 0 1 0 7.77368384593504 70.82569673860503 28.256712356020817 1 0 1
4449 0 1 0 2.070081812513717 70.8254208356019 27.366056787100618 1 0 1
4453 0 1 0 2.0676204769675297 73.25931753829943 27.48345942334265 1 0 1
4671 0 1 0 8.477984071984437 57.16843474827669 27.626264743973334 1 0 1
4675 0 1 0 8.484100129681377 59.63407806973131 27.74583928031647 1 0 1
4694 0 1 0 7.798040338922441 73.23074024527469 28.396432513203116 1 0 1
4440 0 1 0 5.725841247577047 62.16015903921414 27.237007156765802 1 0 1
4439 0 1 0 4.301489423220751 62.20629668184014 27.001025455815103 1 0 1
4434 0 1 0 3.5227689077636093 60.95616187160246 26.930777183196426 1 0 1
4438 0 1 0 3.560505254503391 63.40139734051414 26.944024986508328 1 0 1
4444 0 1 0 5.6680617920694925 64.63613132379916 27.251736055205587 1 0 1
4443 0 1 0 4.277378684045838 64.56672703212412 27.102279150758466 1 0 1
4437 0 1 0 2.130092972466169 63.35306696705832 26.973871749509506 1 0 1
4433 0 1 0 2.1565897845458024 60.91873793901035 26.8198126168705 1 0 1
4200 0 1 0 1.436866639673818 62.109446696738594 26.800599297516133 1 0 1
4204 0 1 0 1.456976228508449 64.63606594666574 26.854507872028023 1 0 1
4673 0 1 0 6.397597543541956 60.91008593981541 27.321748931339094 1 0 1
4677 0 1 0 6.40620060498562 63.4043501384018 27.39641302566663 1 0 1
4678 0 1 0 7.827329735784566 63.35070770086695 27.6466921505529 1 0 1
4674 0 1 0 7.743572732189324 60.86772329900303 27.703835906664374 1 0 1
4695 0 1 0 8.498855776624804 72.05709748437674 28.457773301311985 1 0 1
4456 0 1 0 5.595154556899602 72.05476706826589 28.138759120372796 1 0 1
4212 0 1 0 1.4738062310134508 69.5557816353576 27.063808229464478 1 0 1
4679 0 1 0 8.538156577572332 62.11212426479249 27.708088885549177 1 0 1
4691 0 1 0 8.466998383029647 69.58748142616362 28.25656817565524 1 0 1
4683 0 1 0 8.538215458311724 64.59580594521091 27.756811286878005 1 0 1
4208 0 1 0 1.456343335534508 67.0995907282309 26.848488785896258 1 0 1
4447 0 1 0 4.2649371371100475 67.10916202244789 27.39997050120644 1 0 1
4448 0 1 0 5.659070205179768 67.10741773342782 27.60749404095793 1 0 1
4442 0 1 0 3.584985458139168 65.88292764557441 27.131683798947268 1 0 1
4446 0 1 0 3.576724271528826 68.36573566002228 27.279550202831718 1 0 1
4445 0 1 0 2.2027082227667174 68.32801763661078 26.991234087869213 1 0 1
4441 0 1 0 2.184545635089787 65.86608908020958 26.9334492694602 1 0 1
4685 0 1 0 6.337398956759735 68.35227364841396 27.865044554833943 1 0 1
4681 0 1 0 6.391705518293311 65.88337475418751 27.497122433733534 1 0 1
4686 0 1 0 7.768652906846929 68.33447724790082 28.00666343927181 1 0 1
4682 0 1 0 7.7750784884708315 65.85568128084478 27.75159899506817 1 0 1
4693 0 1 0 6.396756648666635 73.25695802507546 28.18591329457046 1 0 1
4216 0 1 0 1.329382168650549 72.0782559185797 27.346970043471654 1 0 1
4689 0 1 0 6.331454932678175 70.77962923326747 28.127507458577735 1 0 1
4687 0 1 0 8.49699036033666 67.08913665543547 27.956111953171444 1 0 1
4451 0 1 0 4.236726076128102 69.55997768428776 27.592012804243637 1 0 1
4455 0 1 0 4.179906102634253 71.98696304793515 27.920574897113983 1 0 1
4454 0 1 0 3.482053500004325 73.1969395930348 27.732221334056597 1 0 1
4450 0 1 0 3.47880030197644 70.82252014060064 27.61066562090388 1 0 1
4452 0 1 0 5.590767310942153 69.57002009992338 27.85731500153012 1 0 1
4207 0 1 0 0.028122271720545135 67.09996910677414 26.773622002921844 1 0 1
4203 0 1 0 0.01142588498229905 64.65256932118707 26.6830401384769 1 0 1
4191 0 1 0 0.025363956094849982 57.25563061787613 26.843194325106868 1 0 1
4211 0 1 0 0.011189387387929628 69.54941770857978 26.880022318462107 1 0 1
4464 0 1 0 5.639294650377946 76.89811172286252 28.621122304316774 1 0 1
4460 0 1 0 5.632326227279684 74.47268373056 28.247900322977223 1 0 1
4459 0 1 0 4.225614166135415 74.44449931961941 27.945908749623175 1 0 1
4463 0 1 0 4.240438699293815 76.86742342279345 28.345772390116736 1 0 1
4462 0 1 0 3.4822794639597903 78.06796772657557 28.624699820291724 1 0 1
4458 0 1 0 3.546486526494411 75.68479244574259 27.96189545924976 1 0 1
4457 0 1 0 2.095517981831773 75.6542905588288 27.832623370365656 1 0 1
4461 0 1 0 2.048891962423083 78.03690576694451 28.50077154715335 1 0 1
4224 0 1 0 1.3506828337040426 76.8551727975859 28.066031807163263 1 0 1
4220 0 1 0 1.3592516084344097 74.44916671398492 27.566064700704334 1 0 1
4701 0 1 0 6.268869758848472 78.07974583421756 29.018440003844088 1 0 1
4697 0 1 0 6.34580557483462 75.68256335089276 28.497762283801766 1 0 1
4702 0 1 0 7.722905340142232 78.03264128529698 29.26400710537229 1 0 1
4698 0 1 0 7.72662362626206 75.5885157499033 28.742673136499146 1 0 1
4703 0 1 0 8.364011184098958 76.81028822907753 29.17763931248262 1 0 1
4699 0 1 0 8.483045494826126 74.4462401040747 28.57850270468625 1 0 1
4717 0 1 0 6.115386541371702 87.82776082148229 30.712840440618734 1 0 1
4484 0 1 0 5.473013753648508 89.10166687776501 30.775018896142136 1 0 1
4718 0 1 0 7.537348801660764 87.76635584397746 30.772202728143203 1 0 1
4723 0 1 0 8.276647223863357 89.05440811497239 30.774532731310114 1 0 1
4472 0 1 0 5.474311647659344 81.70580397702135 29.79354668720837 1 0 1
4468 0 1 0 5.553173251817303 79.30193902920035 29.184702966843627 1 0 1
4467 0 1 0 4.120218561198387 79.26548657764026 29.004202736896136 1 0 1
4471 0 1 0 4.035038703574905 81.68578148552649 29.685899386485687 1 0 1
4466 0 1 0 3.413104524065703 80.50355398610658 29.23268070726787 1 0 1
4470 0 1 0 3.324667014053678 82.89300381939402 29.658102174424567 1 0 1
4469 0 1 0 1.9109976979468455 82.90928558912904 29.495114065467632 1 0 1
4465 0 1 0 1.9951087959602438 80.50447531978425 29.08027988998142 1 0 1
4232 0 1 0 1.2537705085879352 81.71770591284117 29.213152950703876 1 0 1
4228 0 1 0 1.3005770395980716 79.2409479367772 28.787113416851582 1 0 1
4705 0 1 0 6.217142384465721 80.46372680979695 29.558562817415186 1 0 1
4706 0 1 0 7.619723580029451 80.4780084380447 29.69825118927558 1 0 1
4711 0 1 0 8.285760572512215 81.67234084459805 30.047856578998697 1 0 1
4707 0 1 0 8.345654623496857 79.25340808419969 29.589363097165904 1 0 1
4244 0 1 0 1.147055060886612 88.98636747983207 30.806618983657593 1 0 1
4727 0 1 0 8.306138752421559 91.53350685883971 30.71060878691635 1 0 1
4248 0 1 0 1.19216588884464 91.50059312622504 30.936305091679635 1 0 1
4721 0 1 0 6.179855865840687 90.32254447602956 30.845280253082706 1 0 1
4709 0 1 0 6.1616048843516245 82.9112245876935 30.1285667647963 1 0 1
4710 0 1 0 7.587503936386371 82.85996014233993 30.26712872596669 1 0 1
4480 0 1 0 5.423165455472137 86.56851770158697 30.565761133767595 1 0 1
4476 0 1 0 5.40935289158852 84.09298861941748 30.150210788855826 1 0 1
4479 0 1 0 4.015925161877492 86.5764711291506 30.391002671121118 1 0 1
4475 0 1 0 3.9857474763540113 84.0793256023789 30.060659628417277 1 0 1
4474 0 1 0 3.266828988475903 85.32082863654293 30.22439959074725 1 0 1
4473 0 1 0 1.8918938452557201 85.38664715409841 29.907496678542234 1 0 1
4240 0 1 0 1.209993200350733 86.59800550594821 30.0977434115908 1 0 1
4236 0 1 0 1.2265380572279088 84.16100730930246 29.65751442962394 1 0 1
4713 0 1 0 6.11958118993921 85.3456312749394 30.445254273858932 1 0 1
4714 0 1 0 7.564650705058958 85.36096962259519 30.442321134731987 1 0 1
4719 0 1 0 8.291765199126486 86.60275145922202 30.457281133533577 1 0 1
4715 0 1 0 8.280326942561468 84.14420687584196 30.373985353331896 1 0 1
4477 0 1 0 1.8613385205572153 87.8010348619761 30.463322777247193 1 0 1
4722 0 1 0 7.622557571894579 90.30137606416842 30.8010623063329 1 0 1
4481 0 1 0 1.8914366713163433 90.23922502913571 30.935166102853813 1 0 1
4487 0 1 0 3.9746218737819685 91.53973268974113 30.99248872393226 1 0 1
4483 0 1 0 4.038942692038774 89.0438758612067 30.729198198839953 1 0 1
4482 0 1 0 3.3045601692565456 90.25435337521263 30.918318820377596 1 0 1
4478 0 1 0 3.2904349863872118 87.81950820068643 30.50486801802796 1 0 1
4488 0 1 0 5.416171725685218 91.57059712292224 30.90387881986965 1 0 1
4492 0 1 0 5.453762466602455 94.0260056453853 30.95696051748398 1 0 1
4496 0 1 0 5.494166384458324 96.52379088509056 31.013643424352946 1 0 1
4491 0 1 0 4.014559653940561 94.00667440958891 30.993976743944547 1 0 1
4495 0 1 0 4.063711079796635 96.54488041995609 30.96776815217447 1 0 1
4486 0 1 0 3.2963866236803243 92.7814094294553 30.998546016410664 1 0 1
4490 0 1 0 3.365488558365449 95.27455522607066 30.983207638990947 1 0 1
4489 0 1 0 1.9500208734764692 95.27090539759233 30.939420008923275 1 0 1
4485 0 1 0 1.8747799681099502 92.78555537188059 30.959089312966274 1 0 1
4252 0 1 0 1.1882950575418083 94.00480048869673 30.928772034165316 1 0 1
4256 0 1 0 1.2010938108549645 96.51276937498334 30.902386407866533 1 0 1
4729 0 1 0 6.184970839340471 95.24166091458372 30.973127878622197 1 0 1
4725 0 1 0 6.144047192823405 92.81407124470033 30.859089903003564 1 0 1
4726 0 1 0 7.595352942432027 92.79657870469475 30.808267893528246 1 0 1
4730 0 1 0 7.591521702085977 95.26093971169597 30.8908453066604 1 0 1
4731 0 1 0 8.32525409814339 94.01459523710935 30.85614945830588 1 0 1
4735 0 1 0 8.343326901272683 96.47189272767271 30.94019770592141 1 0 1
4513 0 1 0 1.9012065500758488 110.0751001308086 29.8171308757135 1 0 1
4750 0 1 0 7.6156404869283385 107.60862067935928 30.477529189384708 1 0 1
4753 0 1 0 6.14903573558536 110.1251763357706 30.258332945778626 1 0 1
4755 0 1 0 8.316223494844694 108.83799810812592 30.369552996235658 1 0 1
4500 0 1 0 5.477149422781947 99.00021313827226 30.818312796169433 1 0 1
4499 0 1 0 4.017986111886259 99.02512290550627 30.815435038669804 1 0 1
4498 0 1 0 3.3066045137292512 100.2546662639729 30.78655212355253 1 0 1
4494 0 1 0 3.3459461019275825 97.75658957399142 30.856760902973896 1 0 1
4504 0 1 0 5.449990800065803 101.49326040621992 30.8717389712723 1 0 1
4503 0 1 0 4.033390975714448 101.53920134548972 30.80241977506251 1 0 1
4493 0 1 0 1.884097756426446 97.76604347438717 30.805939851198517 1 0 1
4497 0 1 0 1.8669417157562278 100.20517726847967 30.675296561600568 1 0 1
4264 0 1 0 1.179539201439714 101.48013025206303 30.544806067893138 1 0 1
4260 0 1 0 1.1849350710887614 98.95169310872905 30.716209160264903 1 0 1
4733 0 1 0 6.195201126781246 97.78743828780055 30.855720989532248 1 0 1
4737 0 1 0 6.196561032243572 100.26946065950402 30.863012878591924 1 0 1
4734 0 1 0 7.617211086788894 97.72646058053351 30.899559989708095 1 0 1
4738 0 1 0 7.610463070291179 100.22379471502576 30.94442320583737 1 0 1
4739 0 1 0 8.306694525201996 98.97070820096145 30.93711808307093 1 0 1
4754 0 1 0 7.579916265411059 110.07851472296544 30.23189615919662 1 0 1
4272 0 1 0 1.1681550690874358 106.3920327848563 30.128877878210506 1 0 1
4751 0 1 0 8.297191992410347 106.40455709017341 30.697263871039432 1 0 1
4743 0 1 0 8.345574952589732 101.44301356910125 30.909806772403474 1 0 1
4749 0 1 0 6.1998058535835 107.6209568705232 30.3517737371476 1 0 1
4508 0 1 0 5.429618557964116 103.94274034896162 30.59963800513436 1 0 1
4507 0 1 0 4.048806822316019 103.9398949095321 30.552751808460034 1 0 1
4502 0 1 0 3.3196330788898893 102.73229737429946 30.68789907265756 1 0 1
4506 0 1 0 3.343939351561378 105.16358871278413 30.407986169050616 1 0 1
4505 0 1 0 1.9042062519676746 105.17500803890741 30.321715814964985 1 0 1
4501 0 1 0 1.8915348094264255 102.72049010738795 30.562164171758223 1 0 1
4268 0 1 0 1.1653300958745114 103.95772742586423 30.44896716159273 1 0 1
4741 0 1 0 6.172020320578194 102.72540630623546 30.78350150169416 1 0 1
4745 0 1 0 6.152670406232494 105.1745490768339 30.514264205929287 1 0 1
4742 0 1 0 7.628148239368934 102.67735179137307 30.79499382222801 1 0 1
4746 0 1 0 7.56969408506409 105.16303885821397 30.69040194788257 1 0 1
4747 0 1 0 8.336182892334556 103.9206604602016 30.84315644815329 1 0 1
4276 0 1 0 1.2147264650453957 108.83315589047066 29.781583136415232 1 0 1
4512 0 1 0 5.471779451049363 106.42555016684811 30.328554074109665 1 0 1
4509 0 1 0 1.8674843525964242 107.58039544543539 29.978507716742037 1 0 1
4514 0 1 0 3.2775333132600966 110.161625504097 30.175913549864678 1 0 1
4511 0 1 0 4.056076632302176 106.42188302100668 30.23953896404036 1 0 1
4510 0 1 0 3.3099164603623246 107.62590506894442 30.22267247641148 1 0 1
4515 0 1 0 4.012676778130436 108.85660016373123 30.11605394802329 1 0 1
4516 0 1 0 5.432511107988566 108.87150106836741 30.23356668474255 1 0 1
4524 0 1 0 5.450684095345959 113.77722326297167 29.936157124704355 1 0 1
4520 0 1 0 5.409324478422428 111.32321709730647 30.119969036191367 1 0 1
4523 0 1 0 4.06500991773337 113.79698372235225 29.837999504597096 1 0 1
4519 0 1 0 3.984832338732012 111.33245430125255 30.05221383097172 1 0 1
4518 0 1 0 3.291015233097065 112.57260887246137 29.898401431228617 1 0 1
4522 0 1 0 3.341784255575906 114.98737807624573 29.544852340070754 1 0 1
4517 0 1 0 1.8994427473783426 112.52119587174339 29.615087977253665 1 0 1
4521 0 1 0 1.8883189155399152 114.99616576725863 29.34349342077975 1 0 1
4284 0 1 0 1.188448518803229 113.7781703845232 29.319481724681662 1 0 1
4280 0 1 0 1.2157594559105327 111.27648529822218 29.562165158519754 1 0 1
4761 0 1 0 6.14894438032211 115.0035462379613 29.790949926245403 1 0 1
4757 0 1 0 6.1552730897567365 112.56150970858597 30.080982069737715 1 0 1
4762 0 1 0 7.587776456330301 114.997556121347 29.841480717373408 1 0 1
4758 0 1 0 7.557097311681215 112.54371267812631 30.03625138690167 1 0 1
4759 0 1 0 8.262187491800564 111.29881490357273 30.116886360230087 1 0 1
4763 0 1 0 8.2432842336289 113.80687399521946 29.931806007715643 1 0 1
4781 0 1 0 6.2550994865677945 127.30688911821365 29.186795539156126 1 0 1
4787 0 1 0 8.354358330397371 128.5851282290708 29.013968834546926 1 0 1
4782 0 1 0 7.656020123568194 127.32149260240548 29.0988651188556 1 0 1
4537 0 1 0 1.8924696636774312 124.91664480197174 29.146558974209245 1 0 1
4532 0 1 0 5.433253253208435 118.69434736751174 29.207841903809168 1 0 1
4528 0 1 0 5.448062189345899 116.24264736722145 29.504704213025246 1 0 1
4531 0 1 0 4.0816174542510435 118.69276834008444 29.07320003380718 1 0 1
4527 0 1 0 4.02478294895631 116.26213970515087 29.435378106211957 1 0 1
4526 0 1 0 3.3192354591663915 117.43751013041084 29.18332179836847 1 0 1
4530 0 1 0 3.317854069441825 119.90899738539213 29.066955008831847 1 0 1
4525 0 1 0 1.8908206168071409 117.43692022200462 29.139340902558292 1 0 1
4529 0 1 0 1.8473229382734788 119.90453800328714 29.143641867250654 1 0 1
4288 0 1 0 1.2056470914674307 116.20570453037523 29.197375181454852 1 0 1
4292 0 1 0 1.2122616449499983 118.66377452323165 29.19982468658134 1 0 1
4765 0 1 0 6.1595786797650955 117.48193562775228 29.41885991595286 1 0 1
4769 0 1 0 6.165014293071319 119.94239292533841 29.201607195322538 1 0 1
4766 0 1 0 7.58114908049883 117.48028025722907 29.494827936542336 1 0 1
4771 0 1 0 8.298046955971444 118.67211768210711 29.25158039987236 1 0 1
4767 0 1 0 8.302797059986498 116.25580342594158 29.720777756545303 1 0 1
4777 0 1 0 6.185954070693429 124.86549685233464 29.000081233942453 1 0 1
4308 0 1 0 1.191919838943249 128.60412950437322 29.314434648246905 1 0 1
4783 0 1 0 8.326446211128513 126.11239000582451 28.897678127908986 1 0 1
4770 0 1 0 7.603457170172317 119.92881046599778 29.18023649211762 1 0 1
4540 0 1 0 5.475101434591224 123.63969516406543 29.043071243745224 1 0 1
4536 0 1 0 5.465077555236687 121.17578101268984 29.135894007132226 1 0 1
4539 0 1 0 4.018548191900466 123.62446848414588 29.11342961003467 1 0 1
4535 0 1 0 4.032713840555124 121.13019427537822 29.051215346867895 1 0 1
4534 0 1 0 3.3288147431148016 122.39193506723778 29.0646168139386 1 0 1
4533 0 1 0 1.8932425760836256 122.41199937510382 29.184722370172924 1 0 1
4296 0 1 0 1.1759665298775146 121.16691277752946 29.183944471581583 1 0 1
4300 0 1 0 1.22209277013757 123.6773857387988 29.22925249126755 1 0 1
4548 0 1 0 5.508724283339867 128.60384916663878 29.262412352734422 1 0 1