LAMMPS data file via write_data, version 4 Feb 2025, timestep = 500000, units = metal

6240 atoms
2 atom types

0 51.336 xlo xhi
0 49.4 ylo yhi
0 75 zlo zhi

Masses

1 1.007999999740698
2 15.99899999588435

Atoms # full

1341 0 1 0 4.52427502825572 2.7386234650968313 10.892623375675452 3 -2 -1
2105 0 1 0 4.835825752499152 5.115856579446653 9.162371286996818 3 -2 -1
4849 0 2 0 1.944908102991473 3.5298405520887663 12.699295233574254 4 -4 -1
6057 0 1 0 2.557637014691457 4.91181691016561 11.665748047971023 4 -2 -1
2106 0 1 0 3.776362041865211 5.2401946147586145 7.937254694629522 3 -2 -1
2104 0 2 0 3.929386693606617 4.887211121743855 8.850706000307536 3 -2 -1
960 0 1 0 6.227966833832948 3.893594280813293 13.472845275777127 3 -2 -1
36 0 1 0 0.2950011812214029 2.71080099431238 12.964806331831362 3 -2 -1
4851 0 1 0 2.4366925215060413 3.818991263680824 13.46822798191267 4 -4 -1
3033 0 1 0 2.641416948947789 5.871402688124278 14.559417670475257 3 -3 -1
4850 0 1 0 2.521586617909784 2.724283551773515 12.371546711591913 4 -4 -1
958 0 2 0 6.343502617182733 2.9456688153265946 13.167008230383441 3 -2 -1
1339 0 2 0 4.405005819140166 2.0731114346633044 11.637538520230102 3 -2 -1
1340 0 1 0 5.036386044382363 2.21182402453095 12.352483929264363 3 -2 -1
6083 0 1 0 0.9565493903036625 0.8799767814881526 10.823526777551054 4 -2 -1
5671 0 2 0 5.651012153708058 5.606015106754104 13.978489787709114 4 -2 -1
6055 0 2 0 2.7644581382562814 5.789199105118643 11.268264347557468 4 -2 -1
1046 0 1 0 3.482756929081227 0.5081306572988618 11.301511384653116 3 -2 -1
6056 0 1 0 2.8536981537392463 5.5358418301285255 10.323898664572747 4 -2 -1
3031 0 2 0 3.1451228686568373 5.02528725741528 14.606743329978885 3 -3 -1
5673 0 1 0 4.787385101087318 5.43310516747321 14.32441014425626 4 -2 -1
5672 0 1 0 5.429923479248211 6.061006879468254 13.086209655137893 4 -2 -1
1045 0 2 0 2.7473622606680896 0.014300028083039493 10.902333247951885 3 -2 -1
1161 0 1 0 2.2356268690859613 5.938390673411224 21.371430921745628 3 -3 -1
2629 0 2 0 3.142188348993937 0.0003665097158211093 18.9332995428145 3 -2 -1
3029 0 1 0 5.359246077555266 2.362895990473355 19.220194502001583 4 -3 -1
1664 0 1 0 1.0316424473255552 3.766119922800495 21.135631030250366 4 -3 -1
4560 0 1 0 5.921640726999038 0.23970073211583676 21.72876010837113 2 -2 -1
1248 0 1 0 4.339664963962601 3.3150922386138704 20.884862475082656 3 -2 -1
3030 0 1 0 4.029173565135447 1.842855419826763 19.373137373910772 4 -3 -1
2729 0 1 0 0.7570893206957218 0.9112988026290487 22.263284322810062 4 -2 -1
2045 0 1 0 1.2701609786255856 3.709484286025969 17.16181052324523 3 -3 -1
5743 0 2 0 2.7859751604769705 4.309783022876017 17.34876555717835 3 -1 -1
5744 0 1 0 3.441134432718582 3.9927384097047236 17.965259933211996 3 -1 -1
2628 0 1 0 0.2314788002395183 1.6368649119518952 16.167995653492852 3 -2 -1
5745 0 1 0 2.537539622510589 5.168685587617506 17.724785002975043 3 -1 -1
3028 0 2 0 4.481149519790035 2.7141432259588596 19.333915891658748 4 -3 -1
4436 0 1 0 3.0095963209681975 1.4420914007631038 15.051799153525227 3 -2 -1
3830 0 1 0 5.7050682532791495 5.982058862919334 20.68500252550792 3 -3 -1
3032 0 1 0 3.0223063168672657 4.779854006625681 15.542809996036125 3 -3 -1
1246 0 2 0 4.337353600123011 3.7289705698722457 21.871352876969794 3 -2 -1
2044 0 2 0 0.33167012848656324 3.3674590947761707 17.10652639671288 3 -3 -1
2794 0 2 0 0.04831739552231235 0.04695635625376042 18.85654757393582 4 -2 -1
1663 0 2 0 1.583731729970648 4.236125242318963 21.815006138620657 4 -3 -1
5815 0 2 0 5.990459426177652 0.48192390923762846 16.241827253172147 3 -2 -1
4435 0 2 0 3.4919515315230356 0.6332530226104699 15.023941440160122 3 -2 -1
5816 0 1 0 5.1674086435770015 0.6686407124737894 15.764594140325181 3 -2 -1
1247 0 1 0 3.3807220593361995 3.620646892046129 22.181806275113477 3 -2 -1
2046 0 1 0 0.10037039890942516 3.4770580704351843 18.02281816817243 3 -3 -1
2267 0 1 0 6.230853144045185 0.9819338621696251 17.919352182526577 3 -3 -1
4437 0 1 0 2.9494995635121475 0.08533127830747002 15.570223869205343 3 -2 -1
2630 0 1 0 2.438960828072389 0.18665481175193355 18.304955958110305 3 -2 -1
1665 0 1 0 0.8141739638721951 4.529749063408148 22.401182586992356 4 -3 -1
6032 0 1 0 5.157983194133443 2.9029579108767263 27.58416366022779 4 -2 -1
5304 0 1 0 2.321912134682384 5.758400494362431 29.06443613859159 4 -2 -1
669 0 1 0 1.2686549556306703 0.6247176156856641 25.955948431252068 3 -2 -1
668 0 1 0 0.4194706729108237 0.9332843227893434 24.70888747467523 3 -2 -1
3013 0 2 0 2.999698713991797 0.32453435315176987 26.536793987801257 3 -2 -1
4654 0 2 0 5.678050213372581 5.169655853863282 23.856134520095587 3 -2 -1
2345 0 1 0 6.2827682420839315 0.14794231047076892 25.996301138565563 3 -2 -1
6021 0 1 0 0.13280583950919694 4.536057568625026 24.529970664898606 4 -3 -1
4655 0 1 0 5.269537743367795 4.794186718989775 23.050495923607084 3 -2 -1
667 0 2 0 0.3867681375104981 0.6405366269573121 25.620286525771608 3 -2 -1
6033 0 1 0 4.67273282455554 1.9545949729701453 26.473784756294997 4 -2 -1
6031 0 2 0 4.519460788337467 2.848231263886047 26.869024916817153 4 -2 -1
2344 0 2 0 5.6489457795610685 0.0026435726238846456 25.328259856309568 3 -2 -1
1369 0 2 0 4.063599099111116 5.6723453384742095 26.117462275511443 3 -2 -1
1371 0 1 0 4.272942801427595 4.745497861735889 26.474231082994883 3 -2 -1
2550 0 1 0 1.638140279314687 2.613920717169548 28.776288874420423 3 -2 -1
2548 0 2 0 2.1426092762576263 3.3964373688797886 28.368260906190173 3 -2 -1
2549 0 1 0 2.90791696580417 2.9518826149417876 27.981171949922086 3 -2 -1
418 0 2 0 2.5762598605248876 0.17822836526315447 29.4836360250591 3 -2 -1
1453 0 2 0 5.9648867815833 1.7244217061782372 22.96566656825708 3 -3 -1
420 0 1 0 1.6102988009748693 0.17010433164117955 29.66906225223952 3 -2 -1
569 0 1 0 0.7617629572755594 3.905082243168015 26.640157916551875 3 -3 -1
1455 0 1 0 5.878047277279053 1.3640960697833064 23.87403492049871 3 -3 -1
4656 0 1 0 4.99459183672629 5.274489407630411 24.532604957435474 3 -2 -1
1454 0 1 0 5.287700063123251 2.424749456587526 22.924574476677698 3 -3 -1
568 0 2 0 0.024376102601646302 3.564678776282994 26.07901917621686 3 -3 -1
570 0 1 0 0.5429133713818881 2.8514437083804043 25.782480585278098 3 -3 -1
237 0 1 0 5.205983518998065 0.884042175876704 29.972284613135844 3 -3 -1
4602 0 1 0 3.834238292259331 3.168314613053953 29.75346409595744 3 -2 -1
2523 0 1 0 5.921704098185453 4.632642160881324 32.73852786012331 3 -2 -1
235 0 2 0 5.827885180005279 0.17417257129246877 30.21694552487275 3 -3 -1
4600 0 2 0 4.634812359036839 2.661491065568223 30.009921114480324 3 -2 -1
4601 0 1 0 5.31473523856421 3.365074683891278 30.247034170354883 3 -2 -1
165 0 1 0 2.3190883810086365 2.637191282514214 32.58788810072495 2 -3 -1
1778 0 1 0 2.2567191309371575 0.5777909672810846 32.529521331356385 3 -3 -1
163 0 2 0 1.9945963035723615 3.587605339593465 32.450944570821676 2 -3 -1
1779 0 1 0 3.254638747982079 1.3133866912654804 31.511038933273486 3 -3 -1
1777 0 2 0 3.0484877214960338 1.1963679321822673 32.47486097820583 3 -3 -1
164 0 1 0 2.475808348933097 4.125929719519971 33.1612138517944 2 -3 -1
3819 0 1 0 4.807157339303826 1.4410730937993015 33.36143885555731 3 -2 -1
5033 0 1 0 0.5105186043439733 3.3756521554780745 31.645503360452057 3 -3 -1
3817 0 2 0 5.433482253914373 1.6582389359484755 34.02441952382073 3 -2 -1
2521 0 2 0 5.955718081710806 4.693747303721081 33.736364781479296 3 -2 -1
5303 0 1 0 3.1014707258091923 6.0859341163852685 30.288721918994252 4 -2 -1
3818 0 1 0 5.524051086085565 2.6380634093049533 34.00164371408362 3 -2 -1
5580 0 1 0 6.367179737212928 0.6725627532593095 35.3424790593055 3 -2 -1
3140 0 1 0 0.48315459005291017 6.1700808004095755 30.168382201443173 2 -3 -1
4244 0 1 0 5.254639685360136 11.635271969709487 12.891716407482598 3 -2 -1
2601 0 1 0 1.9097435833258745 11.208064126413301 14.445164028573734 3 -2 -1
4769 0 1 0 1.5654118280896359 7.763835948128803 13.461322065564122 4 -3 -1
2742 0 1 0 1.0670690479302343 6.751104932784162 11.547499748316431 3 -2 -1
2599 0 2 0 1.1223427120076335 11.514240605122986 13.95049171360869 3 -2 -1
5989 0 2 0 5.050057907241453 7.087328920093262 11.856321159334549 3 -2 -1
4770 0 1 0 2.698473575298192 8.394235847813063 14.407115504321323 4 -3 -1
3612 0 1 0 6.016548326778148 8.229401524108134 12.538237436284666 3 -3 -1
5990 0 1 0 5.617752639605393 6.677684040063249 11.12457527302104 3 -2 -1
2740 0 2 0 0.4619648625366314 7.313223388234319 12.055113116773368 3 -2 -1
5862 0 1 0 4.246894226693725 10.357708485908633 14.311036148020737 4 -2 -1
4243 0 2 0 5.513647493373132 11.229889649264345 13.692691606244324 3 -2 -1
5860 0 2 0 3.37930523249097 10.201972752855053 14.758635501063141 4 -2 -1
4768 0 2 0 1.9330972726738391 7.685974330770316 14.383957734299953 4 -3 -1
5991 0 1 0 4.106188733386317 6.779548433684198 11.668592019651575 3 -2 -1
2600 0 1 0 0.731212055468451 10.718392048378387 13.508894443810707 3 -2 -1
4245 0 1 0 6.233735443391451 11.788030316839615 13.987554488276189 3 -2 -1
3611 0 1 0 6.413460908491616 9.195449982814827 13.64643314630203 3 -3 -1
4960 0 2 0 0.231617067413274 8.990241612355897 16.501908841088365 4 -4 -1
4845 0 1 0 3.1085456641631155 9.912496222032052 18.242132922517282 4 -2 -1
4843 0 2 0 3.960147048595049 9.837309426986723 17.766969333057965 4 -2 -1
3639 0 1 0 1.0697583823511987 6.909716560735861 17.404133093075306 3 -3 -1
3224 0 1 0 6.131986369487593 7.647987494164798 17.735451930287905 3 -3 -1
2869 0 2 0 1.6576493679398 10.204975924984037 18.861867218209362 2 -2 -1
3831 0 1 0 5.750904501313793 7.352541643992082 21.49701967185476 3 -3 -1
4961 0 1 0 0.6727584568511601 9.604225863811656 17.097158371634286 4 -4 -1
2870 0 1 0 1.0480982121036482 10.989374727062305 18.841227889171137 2 -2 -1
6026 0 1 0 5.3019177082525974 10.424770493627982 19.281930038073547 4 -2 -1
1844 0 1 0 4.000172109095135 12.34827670516363 15.974061795275622 3 -3 -1
3637 0 2 0 1.9800926160890238 6.84689464547305 17.747027645273224 3 -3 -1
4480 0 2 0 0.5112933584065689 8.380546281756983 20.490684085361778 4 -2 -1
4481 0 1 0 1.2998465580400096 7.856983931223228 20.78020995929123 4 -2 -1
1160 0 1 0 3.454007642699303 7.0093455337753126 21.052294944277588 3 -3 -1
3225 0 1 0 5.274703008857929 7.266021373454378 18.918268321989082 3 -3 -1
4962 0 1 0 0.8721510437286174 8.558889989361075 15.920300296067632 4 -4 -1
6025 0 2 0 5.578265632983081 10.648053961954028 20.19256290998273 4 -2 -1
3223 0 2 0 5.242379874198236 7.360624420831204 17.925512373768917 3 -3 -1
2792 0 1 0 4.404799099287791 9.876656554636066 22.06857491891492 3 -3 -1
4844 0 1 0 4.414932473704024 8.942214970505583 17.829838400783 4 -2 -1
5861 0 1 0 3.4845942007986874 9.939705589542521 15.666466823028593 4 -2 -1
2871 0 1 0 1.2201867646891158 9.524657913410847 19.536385303617383 2 -2 -1
1845 0 1 0 3.4315635981589283 11.98765385637477 17.324153051681026 3 -3 -1
3638 0 1 0 2.483536683096971 7.511078151981633 17.266686538911173 3 -3 -1
3829 0 2 0 5.34746104563559 6.904846710787306 20.72049479068854 3 -3 -1
1159 0 2 0 2.529317822854178 6.911732977373319 21.400865744333895 3 -3 -1
724 0 2 0 0.10089009122634973 11.800808593615326 28.82833896805681 2 -3 -1
3802 0 2 0 5.622497977605699 10.88485763079976 26.818659535701368 3 -2 -1
1705 0 2 0 5.897459329071163 7.48346052880232 27.227728521909047 3 -3 -1
255 0 1 0 3.265258004143097 8.830805832085684 25.21424757226907 3 -3 -1
3804 0 1 0 4.816460569785853 10.378718794018296 26.591092908373714 3 -2 -1
254 0 1 0 2.7540572560088754 9.061283506708552 26.66295807472428 3 -3 -1
1631 0 1 0 5.999399655464231 7.122427828259632 24.06057900582494 3 -3 -1
3499 0 2 0 2.4872888216961577 12.081770372741309 25.28143152360125 3 -3 -1
665 0 1 0 3.0487697599149897 7.304251679341258 23.133080994562853 3 -2 -1
1520 0 1 0 1.8811948331892703 7.964131194625985 28.76452005606971 2 -2 -1
1521 0 1 0 1.3689195107096896 9.329163966566485 28.279528424372224 2 -2 -1
664 0 2 0 3.378793430666683 7.441849534799933 24.09161923288287 3 -2 -1
253 0 2 0 3.200110347997648 9.550031023667596 25.922128813330225 3 -3 -1
666 0 1 0 3.8027281518858143 6.601758876291888 24.42300920212075 3 -2 -1
2793 0 1 0 5.256469752063378 10.59823066603672 23.151386249833536 3 -3 -1
1519 0 2 0 2.1230808155061056 8.918677437146265 28.643241937391593 2 -2 -1
3501 0 1 0 2.896456540577484 11.150755541947722 25.49616885929934 3 -3 -1
1437 0 1 0 2.0527733096967276 6.584969765108122 26.047238770418925 3 -2 -1
5302 0 2 0 2.3094849416464993 6.366994037371056 29.80644569654835 4 -2 -1
2791 0 2 0 4.464126418906405 9.989859236450581 23.02708395821137 3 -3 -1
1707 0 1 0 6.14311479423878 7.505458591222998 28.196367651644795 3 -3 -1
3975 0 1 0 0.6261659350133344 11.48419148559639 25.238750980377247 3 -3 -1
1706 0 1 0 6.0834035636232136 8.351763744940557 26.88017611110569 3 -3 -1
1632 0 1 0 5.628955466214206 8.549269356395783 23.653942443329495 3 -3 -1
1630 0 2 0 6.312712398476177 8.078338265430236 24.17822528406033 3 -3 -1
1436 0 1 0 0.6714429824364339 7.08306261621528 25.926918368482042 3 -2 -1
2375 0 1 0 6.409365413666521 10.508007380271923 28.630224352758642 3 -2 -1
726 0 1 0 0.9151446228801243 12.20158291229636 28.42726288796035 2 -3 -1
1435 0 2 0 1.2598920083766014 6.663905771917758 26.60705778482139 3 -2 -1
2376 0 1 0 6.194411878913256 9.759970453354564 29.90874231097256 3 -2 -1
3803 0 1 0 6.311015218679517 10.641349949343148 26.179478002334672 3 -2 -1
1370 0 1 0 4.767938768970674 6.231635487235189 26.559008879216893 3 -2 -1
2179 0 2 0 6.226306430741948 7.291895528460406 29.955248844661327 3 -3 -1
1207 0 2 0 2.1549632972349753 6.515757927211598 34.05329773607417 2 -2 -1
926 0 1 0 2.2753492997169706 9.75372061210965 30.438212823102596 2 -2 -1
4585 0 2 0 4.07468571595329 7.371664928546788 31.812509309588176 3 -3 -1
4587 0 1 0 4.371853390989793 7.599389375831048 32.71277028444363 3 -3 -1
3114 0 1 0 2.3112023815551495 11.022400864536065 34.13597807244534 3 -2 -1
1208 0 1 0 1.2045356389869013 6.76472370594524 33.91771524609595 2 -2 -1
221 0 1 0 0.08378504486719658 11.249777731743889 30.58265975886491 3 -4 -1
3112 0 2 0 2.9388285404735557 11.590141808158675 33.736909713005446 3 -2 -1
4586 0 1 0 3.5621081203892007 8.170742713574569 31.655739330687755 3 -3 -1
3113 0 1 0 2.418127327376284 12.284056829861063 33.343064815028086 3 -2 -1
1209 0 1 0 2.573693419913452 6.425506407160551 33.17995429988366 2 -2 -1
1487 0 1 0 3.8806672653763763 7.304103459364796 34.76215477869477 3 -2 -1
927 0 1 0 2.873956983514218 10.380755205551552 31.888857615748314 2 -2 -1
3735 0 1 0 4.296281893368018 11.885397934517636 30.836353864158465 3 -2 -1
2180 0 1 0 5.603881819033809 7.677516784981907 30.570325072672503 3 -3 -1
1486 0 2 0 4.856963388059084 7.409319721818909 34.60155065646569 3 -2 -1
925 0 2 0 3.0982409450505926 9.97059040087664 31.01721024591351 2 -2 -1
6178 0 2 0 0.5758073814732162 10.094519026536778 33.57569388471967 3 -2 -1
2997 0 1 0 5.093239810057615 12.07091043473327 34.29959437680624 3 -2 -1
6180 0 1 0 0.32915002216595834 9.150771704915648 33.52924852920254 3 -2 -1
1488 0 1 0 5.230220435184937 6.527380686566832 34.41016772233309 3 -2 -1
866 0 1 0 0.8039224749110062 13.091400143300547 12.65811547469384 3 -2 -1
4723 0 2 0 5.434821890173579 14.735649974819399 10.257090846350494 4 -3 -1
2398 0 2 0 1.836343946348804 16.309342746388104 12.3164210436086 3 -2 -1
2400 0 1 0 1.4397404266867353 15.361688070089015 12.20760027127561 3 -2 -1
114 0 1 0 2.916522229924769 13.001450810527556 11.627358764127548 3 -4 -1
4780 0 2 0 2.653428412655356 14.712550453683715 14.550148403918815 4 -3 -1
2399 0 1 0 0.9942289832111211 16.78567660081785 12.195282127707982 3 -2 -1
4781 0 1 0 2.4242790762281254 15.447584036740704 13.909803402202195 4 -3 -1
4725 0 1 0 5.624540863581128 14.49693561716475 9.330212007996856 4 -3 -1
113 0 1 0 4.246183267640354 13.750167243915731 11.42884910069428 3 -4 -1
6148 0 2 0 5.749313364432685 17.713572648553022 14.065450977666451 4 -2 -1
6150 0 1 0 6.34479771296991 17.264954758741265 13.418799289933384 4 -2 -1
865 0 2 0 0.620754570315835 13.711260362800605 11.969481998706364 3 -2 -1
4724 0 1 0 5.900473564593941 15.62335755541948 10.476630697229073 4 -3 -1
4782 0 1 0 3.0452124416667683 14.126821215170592 13.87426976050837 4 -3 -1
112 0 2 0 3.818564048099683 13.130899556061731 12.054892017463903 3 -4 -1
6149 0 1 0 6.301206792311003 18.24554065375089 14.686836880272697 4 -2 -1
3316 0 2 0 0.5673083984110472 13.130955684902377 21.607654138467858 3 -3 -1
1731 0 1 0 4.332618384636975 18.192150970283645 18.09887231560734 3 -3 -1
3318 0 1 0 1.2633939982019031 13.552759782471888 20.997487093988113 3 -3 -1
4952 0 1 0 0.7699590870973111 13.13846849306744 15.519861569089148 4 -3 -1
687 0 1 0 6.106690710105839 14.57392993590956 17.748939195971158 2 -3 -1
2284 0 2 0 2.92704110767139 17.19801865138742 19.20127471159793 3 -3 -1
5979 0 1 0 0.5280842339043585 12.997529963142357 17.610753041250355 4 -3 -1
2286 0 1 0 2.7489265378142256 16.2504068463593 19.332131552607052 3 -3 -1
3017 0 1 0 1.4129362476715754 15.355476016160193 15.985748053415053 3 -3 -1
3018 0 1 0 0.3915960626008449 15.815426635422853 17.001886097989512 3 -3 -1
994 0 2 0 2.48984990170485 14.015437586077434 19.82885002597138 3 -2 -1
1729 0 2 0 4.988300186487441 18.379120831769246 17.264026588454897 3 -3 -1
686 0 1 0 5.16611481872142 13.395135652816487 17.579679863299816 2 -3 -1
2189 0 1 0 3.623948769804194 18.31275146136155 20.568793893570856 4 -4 -1
43 0 2 0 4.647755810456783 13.288870125634396 21.182848680761886 3 -3 -1
685 0 2 0 5.898371733563985 13.728022075462853 18.159699834201444 2 -3 -1
3016 0 2 0 0.9366991520628627 16.139274915863858 16.297043947407168 3 -3 -1
44 0 1 0 5.422042035592546 13.892393001315341 21.0924874424785 3 -3 -1
2285 0 1 0 2.1827381669308266 17.588772890196704 18.778908912211424 3 -3 -1
996 0 1 0 1.9238248302256837 13.487162654469628 19.220515744784606 3 -2 -1
995 0 1 0 3.464294989982008 13.851332759469475 19.90674376642709 3 -2 -1
1730 0 1 0 5.055327612530644 17.411381341180746 17.032449951279787 3 -3 -1
3377 0 1 0 5.293469887382257 16.37572778195527 15.429733004647476 3 -3 -1
2663 0 1 0 5.447170016676932 18.431390380638305 21.74206076848396 3 -3 -1
2662 0 2 0 6.315109813228227 18.01286938580242 21.92603565548739 3 -3 -1
3376 0 2 0 5.008006164199206 15.92803791870259 16.2770213089068 3 -3 -1
5977 0 2 0 0.4911584917620495 12.75042566300429 18.631725206191536 4 -3 -1
45 0 1 0 4.843008037971708 12.504607762679562 20.5904900373467 3 -3 -1
3378 0 1 0 4.14350321115356 15.606019654562921 16.10305438000121 3 -3 -1
5693 0 1 0 2.2241257725544172 18.139434034994245 15.992011501078194 4 -3 -1
1843 0 2 0 3.7422224032358398 12.702496478767035 16.81788083083972 3 -3 -1
1181 0 1 0 0.003683006172978923 18.487440300213756 19.654785518047184 2 -2 -1
3070 0 2 0 0.6420733530568914 16.875358685224274 27.80305542923933 3 -2 -1
619 0 2 0 3.0806463641318853 15.546935302153019 27.394665065489697 3 -3 -1
3500 0 1 0 2.5197535183585824 12.432222660585335 26.172697322314587 3 -3 -1
2534 0 1 0 6.221232636779386 14.951207637967551 24.957249432482413 4 -2 -1
6096 0 1 0 2.9303819978181087 13.142778558639415 24.05674085383381 3 -3 -1
1442 0 1 0 3.5283086685492546 15.432897737390954 23.951994900324685 3 -3 -1
2269 0 2 0 6.320280910924678 13.76718220811283 28.225098543289416 3 -2 -1
1443 0 1 0 4.144146662942185 16.93776863262844 23.99726849078706 3 -3 -1
3072 0 1 0 0.31522594103356644 16.75715314855408 28.697042603166455 3 -2 -1
2274 0 1 0 2.7428545595194613 13.920843807925163 27.881404816509875 3 -2 -1
586 0 2 0 5.100742222158764 16.18584122606432 29.30091262364163 3 -3 -1
621 0 1 0 3.2552458244159324 15.571481707646699 26.441031954616225 3 -3 -1
1441 0 2 0 3.432958925942463 16.356298400305263 24.34948416911047 3 -3 -1
2270 0 1 0 6.056368409158805 13.138378163639118 27.54804350864691 3 -2 -1
2272 0 2 0 2.5555753796555822 12.958512779944503 27.941943873940527 3 -2 -1
2273 0 1 0 2.925939126867049 12.800778232197656 28.815667225697247 3 -2 -1
620 0 1 0 3.8402650335448603 15.92716158972001 27.927524906759107 3 -3 -1
3071 0 1 0 1.4323954075982908 16.28724714185507 27.700882035616306 3 -2 -1
587 0 1 0 5.391949784014893 17.09342711819028 29.201458036932493 3 -3 -1
6094 0 2 0 2.980112092896264 14.024748614515692 23.46526075698201 3 -3 -1
3734 0 1 0 5.209166044306024 12.57433788339367 29.849357985588682 3 -2 -1
4030 0 2 0 6.110578841591272 16.53529067015871 25.985116552388885 4 -2 -1
1354 0 2 0 0.7943859228907495 16.994772953540682 22.75638104104418 4 -2 -1
1356 0 1 0 1.5801090901750194 16.652933812481077 23.178402386018732 4 -2 -1
2664 0 1 0 6.342447454958239 18.036450350714166 22.882976395595513 3 -3 -1
4031 0 1 0 5.985609815869601 17.356706848342952 25.421678964432726 4 -2 -1
2271 0 1 0 5.686299957041426 14.508652051704555 28.203506384891174 3 -2 -1
1355 0 1 0 0.3182115467317678 17.35364633964549 23.486914998719335 4 -2 -1
6095 0 1 0 3.213970935471174 13.756212518174697 22.550560720748106 3 -3 -1
1569 0 1 0 1.4439522841215495 18.346087903668504 27.436134685180534 2 -3 -1
3317 0 1 0 0.8537462886694216 13.334466028456175 22.522125975742735 3 -3 -1
2081 0 1 0 6.357433374544178 12.60557339056448 23.620731961805546 3 -2 -1
58 0 2 0 2.922896575695077 15.834655390585745 31.098355779175268 3 -3 -1
4376 0 1 0 2.7617974414379667 16.78372533036291 34.599778434103214 2 -2 -1
4329 0 1 0 0.6671776635739242 13.49309295882057 30.947895363011884 3 -2 -1
4613 0 1 0 5.457562926913846 14.52582850191417 33.864874311517475 3 -3 -1
2091 0 1 0 1.1589472559966763 14.614701099102975 34.59194840614821 3 -3 -1
59 0 1 0 2.3086578037627303 15.018084420889206 31.269527326910417 3 -3 -1
2089 0 2 0 0.77212750973782 13.745412021444691 34.312313880300344 3 -3 -1
4614 0 1 0 6.1946894881863805 15.36829106241578 32.8289333264166 3 -3 -1
298 0 2 0 1.1919466766579885 17.949653833888107 31.300889116982574 3 -3 -1
60 0 1 0 3.35121595627701 15.981986882361973 31.91287982542589 3 -3 -1
4612 0 2 0 5.384583263682714 15.374578787524092 33.36580387890008 3 -3 -1
4328 0 1 0 0.8904939223378711 13.82793525252276 32.344634719298924 3 -2 -1
299 0 1 0 1.143584637786323 17.588653636942176 32.19718503867792 3 -3 -1
1433 0 1 0 5.0415288217048655 17.631497796547546 33.476752224124276 2 -2 -1
4377 0 1 0 1.233581159931044 16.871266044093307 34.311650551647766 2 -2 -1
4327 0 2 0 1.4265776446556409 13.656187957550708 31.50855432256364 3 -2 -1
300 0 1 0 1.890382829849029 17.23104707567113 31.083869881923828 3 -3 -1
4375 0 2 0 2.018464775839734 16.30402384237996 34.27971473865024 2 -2 -1
2090 0 1 0 0.2937825417199596 13.366351790514644 35.1037532032761 3 -3 -1
3733 0 2 0 4.379994421407583 12.722440178048899 30.35193629291787 3 -2 -1
1432 0 2 0 4.688971922244326 18.454935638549774 33.1893155519735 2 -2 -1
2995 0 2 0 5.902109980221222 12.435467436037039 33.94698156903871 3 -2 -1
588 0 1 0 4.452733041634762 16.17036518560032 30.007844870455603 3 -3 -1
1434 0 1 0 4.8285648822641205 18.52179205261598 32.19865692470246 2 -2 -1
2783 0 1 0 3.287471388344881 18.853087127799597 12.429155423259976 3 -2 -1
185 0 1 0 4.4876279706320785 20.47160078474417 13.922906071267771 3 -3 -1
184 0 2 0 5.336681381814631 20.814379392591558 14.323918105518288 3 -3 -1
2784 0 1 0 2.8017718845955075 19.220915051432616 13.857467772574555 3 -2 -1
1710 0 1 0 3.1111030170463296 23.714488882404677 12.786819427722431 3 -3 -1
186 0 1 0 5.512611869902585 21.619083410950374 13.824423145227536 3 -3 -1
1709 0 1 0 3.3149092856584437 24.103328691445853 14.306164726988996 3 -3 -1
2782 0 2 0 2.6122643686861977 19.33115034741748 12.966814138723255 3 -2 -1
1708 0 2 0 2.5636647264596775 23.86311499346667 13.619978870000022 3 -3 -1
4607 0 1 0 0.8139139750371281 19.121226999941616 12.81066783780382 4 -3 -1
4998 0 1 0 1.4776529928069702 22.61249713929982 14.568523038669948 4 -3 -1
440 0 1 0 6.246224134688736 19.445691438088648 12.63410729616418 3 -3 -1
3165 0 1 0 1.6614244601712695 21.63885736327814 16.905116503793245 2 -3 -1
3163 0 2 0 2.167661411506197 21.02172823335927 17.49514749324965 2 -3 -1
4997 0 1 0 1.0211933895955967 23.420032458260152 15.935863810744129 4 -3 -1
4996 0 2 0 0.9973255841012149 22.5482570753622 15.407359143391629 4 -3 -1
412 0 2 0 6.0118520390032515 22.109865748193453 17.013265801252285 3 -3 -1
3252 0 1 0 6.376417583512809 19.549123188648334 18.072079043503358 3 -3 -1
413 0 1 0 6.279487728512762 21.356292737750763 16.42476121801958 3 -3 -1
5867 0 1 0 4.217430995646362 21.65911337453581 20.205303722407663 4 -3 -1
2242 0 2 0 6.215926529276817 22.2740927455773 19.930847561786493 3 -3 -1
98 0 1 0 5.472907938290549 24.030441396946166 20.589395198674126 2 -3 -1
414 0 1 0 5.384979537426399 22.672092507475938 16.487264362770997 3 -3 -1
5868 0 1 0 3.0888218959037106 21.305501962767 19.171865149460604 4 -3 -1
3164 0 1 0 2.520318500115881 20.37663723513161 16.839185481697523 2 -3 -1
5692 0 2 0 2.782358872310091 18.917044796477 15.715523082678224 4 -3 -1
2188 0 2 0 3.868798855054376 18.90180684338496 21.32736122579914 4 -4 -1
3507 0 1 0 0.7397312680238085 19.648775304659818 17.679929457965265 4 -3 -1
5866 0 2 0 3.2760967700735555 21.291653420151196 20.077128397116134 4 -3 -1
2190 0 1 0 3.5409478229867433 19.750235010682264 21.025975376316126 4 -4 -1
3505 0 2 0 0.5088205465210213 18.63679725280898 17.693192863735618 4 -3 -1
4722 0 1 0 0.8769279875572701 24.317772629796973 18.065893935166038 4 -3 -1
5694 0 1 0 3.6551947374102216 18.734651238876246 16.125859361918753 4 -3 -1
3301 0 2 0 4.614375012316265 24.32300421560743 15.468404252288996 3 -3 -1
2244 0 1 0 5.978141391048946 21.7633377921833 19.129162330445055 3 -3 -1
4720 0 2 0 1.0591241096739687 24.568593131557826 17.132969516793256 4 -3 -1
1568 0 1 0 2.6238543812685626 19.403776232443587 27.676486718120525 2 -3 -1
1747 0 2 0 2.4345297992724775 19.68206346747658 24.120556282068495 4 -2 -1
3508 0 2 0 5.8161595252853635 23.653401143958057 25.26147511481659 4 -3 -1
1285 0 2 0 2.124748139381945 23.57326224608866 25.840756248283366 3 -3 -1
4989 0 1 0 5.068143166026118 22.944030193666528 26.785606637828653 4 -3 -1
3397 0 2 0 1.981447547009496 24.466495810980092 29.86225771676232 4 -3 -1
1287 0 1 0 1.4963916207831796 22.952524248275846 25.404425432676916 3 -3 -1
2688 0 1 0 6.203016790625093 19.870675757046076 24.506178119486627 4 -3 -1
2166 0 1 0 4.710716524207417 20.776241911408768 27.800561089134046 3 -3 -1
5906 0 1 0 0.5127529729862869 20.725647449435762 26.691510400570177 4 -2 -1
2686 0 2 0 5.568418540517753 19.123184895915305 24.557920568424652 4 -3 -1
2687 0 1 0 4.700389643869911 19.560972279647007 24.61874327671806 4 -3 -1
1567 0 2 0 1.8182534042941327 19.237786029112645 27.168215081763854 2 -3 -1
2463 0 1 0 1.9184812145426196 21.56615373713512 23.686907017158095 3 -3 -1
4988 0 1 0 3.541552774016832 22.83795242248267 27.11443024038011 4 -3 -1
1749 0 1 0 2.587494944308734 19.007470100235032 23.418450967642244 4 -2 -1
5231 0 1 0 5.142216956055822 22.406186844840835 29.476104764512627 3 -3 -1
1286 0 1 0 2.47056553580148 24.104190159595866 25.085446638906728 3 -3 -1
4987 0 2 0 4.407080337402941 22.496348073180606 27.43128279608913 4 -3 -1
446 0 1 0 4.529482835601274 19.16204862107373 29.80712386701368 3 -3 -1
3398 0 1 0 2.4020521725342947 24.44983098841443 28.967272307593994 4 -3 -1
2165 0 1 0 5.458358330545527 19.388804051660816 27.53556792064925 3 -3 -1
3510 0 1 0 5.214654656918373 24.458022461360983 24.99923534095545 4 -3 -1
1748 0 1 0 2.1154047553047266 19.133086998142403 24.8505124449107 4 -2 -1
2164 0 2 0 4.662151301793897 19.836324743983965 27.920950934909303 3 -3 -1
2462 0 1 0 0.7063033412159944 21.812647862075522 22.93409270483185 3 -3 -1
2461 0 2 0 1.3353489131222087 22.298246536067587 23.533856177033428 3 -3 -1
2177 0 1 0 1.7613128202754216 24.162993847397733 22.63215711571346 3 -3 -1
3992 0 1 0 2.40550028260207 24.400309847155025 31.463821032751614 2 -3 -1
41 0 1 0 1.977587849560252 21.11470703560136 31.733997053417824 4 -3 -1
3993 0 1 0 1.7368879005589035 23.53699961611526 32.684533713923564 2 -3 -1
3991 0 2 0 2.2688298975252277 24.30107862900487 32.47229213517493 2 -3 -1
4564 0 2 0 5.194020610904216 23.82402613220281 32.346896976938574 3 -2 -1
42 0 1 0 2.475588962197607 19.701874441706817 31.128348626856592 4 -3 -1
4565 0 1 0 4.30984110231646 24.112563576243662 32.64258365788834 3 -2 -1
4566 0 1 0 5.008382953811531 23.16877104807578 31.61979509459697 3 -2 -1
3808 0 2 0 1.0741372057648617 21.913544577627654 32.966777754736285 3 -2 -1
40 0 2 0 2.4422187135729048 20.6881208793779 30.93357172097562 4 -3 -1
3809 0 1 0 0.19643913349130265 21.486455892106328 32.70379668011298 3 -2 -1
4568 0 1 0 0.5112718036657194 22.28903540213676 30.337308261446985 3 -3 -1
5230 0 2 0 5.106656763841843 22.055395791932103 30.386100497920005 3 -3 -1
447 0 1 0 5.658824622800075 19.682160038361253 30.582291495153203 3 -3 -1
3810 0 1 0 1.2306523498181228 21.715553245881875 33.93507448890462 3 -2 -1
445 0 2 0 5.1075014442598965 18.913432018484055 30.55410832313979 3 -3 -1
5232 0 1 0 4.358728921985548 21.405871524082205 30.41687496476341 3 -3 -1
5759 0 1 0 4.304828477690979 26.485242990929102 13.009624916325384 4 -3 -1
991 0 2 0 3.0219393536776873 27.625172147744568 14.414765117153598 3 -3 -1
5760 0 1 0 4.233096252817455 25.992059911058043 11.72024937842244 4 -3 -1
5758 0 2 0 4.780045570282231 25.85165475882485 12.449784794039443 4 -3 -1
2438 0 1 0 0.8975622784504234 29.94584729981543 14.176954875792989 3 -3 -1
2439 0 1 0 0.18672224359416395 28.587622744873258 14.01482146308134 3 -3 -1
3600 0 1 0 0.7344582202566302 24.820550365348435 12.863675577663676 3 -4 -1
992 0 1 0 2.1094450330967285 27.964330891504513 14.535805016716902 3 -3 -1
2437 0 2 0 0.8230270564720964 29.06621775281793 14.590735249428878 3 -3 -1
152 0 1 0 5.982304216436174 30.845866859768325 13.38569271281987 3 -3 -1
234 0 1 0 5.805293636525588 28.06350771136145 16.60531629752652 2 -3 -1
2146 0 2 0 2.6563135770385973 26.405130886485527 19.618309713252742 3 -3 -1
1960 0 2 0 4.51719780062232 28.440642434580614 20.360515348079055 3 -2 -1
952 0 2 0 0.9996551275308848 28.575220132957963 17.88514854423111 3 -3 -1
1669 0 2 0 0.38455955950348414 28.460380798027487 20.842913365411096 4 -3 -1