LAMMPS data file via write_data, version 4 Feb 2025, timestep = 500000, units = metal

6240 atoms
2 atom types

0 51.336 xlo xhi
0 49.4 ylo yhi
0 75 zlo zhi

Masses

1 1.007999999740698
2 15.99899999588435

Atoms # full

2224 0 2 0 0.6802538234136146 5.173327409276512 42.14036500175035 2 -1 -1
2225 0 1 0 0.12297790477860096 5.91892502903553 42.4878267957729 2 -1 -1
2226 0 1 0 0.828035968908622 4.696892099727992 43.04002143477541 2 -1 -1
3489 0 1 0 4.830072234560249 4.337813962871051 43.9729112335431 2 -1 -1
935 0 1 0 2.090827840606923 3.3661268409084935 44.552602606427584 1 -1 -1
1561 0 2 0 3.465777187898806 5.4987814465011216 44.020904809303275 2 -1 -1
934 0 2 0 1.2049919975705035 3.3995266198065512 44.88070813605993 1 -1 -1
3487 0 2 0 5.385341122584468 3.6378737983250096 44.436167010622434 2 -1 -1
3488 0 1 0 6.289315235888657 3.9474609193337726 44.5269611133015 2 -1 -1
1563 0 1 0 3.048484353597325 5.900712363167264 43.24733158951743 2 -1 -1
1562 0 1 0 3.297507941611588 6.079673082533919 44.79147966012822 2 -1 -1
2254 0 2 0 4.6617433770193255 0.20045603394001316 47.09056982587594 2 -1 -1
936 0 1 0 1.233653893907229 3.5956024562560187 45.85217635844453 1 -1 -1
5249 0 1 0 4.788918948841123 1.0745091396608217 50.62606190651897 2 -1 -1
2514 0 1 0 0.9947252240095752 0.2885951318669852 46.04940620492726 2 -2 -1
778 0 2 0 3.1198740599535943 3.5812385887819214 50.55427826363328 2 -1 -1
4489 0 2 0 1.2112448941876433 1.7171251656655804 48.94798520125256 2 -1 -1
779 0 1 0 2.5967012995793466 2.8699850685875123 50.07601117165469 2 -1 -1
5728 0 2 0 1.7185301531861066 3.9870189220976857 47.557887754509615 2 -1 -1
4616 0 1 0 4.003595148123966 3.127113613159092 52.039864074991 2 0 -1
372 0 1 0 6.216074425972982 3.31688016065315 48.97714067015902 1 -1 -1
370 0 2 0 5.4286216280183295 3.9394725611434254 48.89903770971939 1 -1 -1
4260 0 1 0 3.333136512439117 3.015689320084937 46.67298831465855 2 -1 -1
4259 0 1 0 4.691550023419231 3.1377385315983934 45.86232487400192 2 -1 -1
5730 0 1 0 1.7103808098486057 3.252077210722924 48.250536168028724 2 -1 -1
371 0 1 0 5.068202481740017 3.5612631834121093 48.05927189855907 1 -1 -1
780 0 1 0 3.9210808886112742 3.7541633620381116 49.93056858727658 2 -1 -1
4258 0 2 0 4.2793926093835815 2.7478182027662323 46.71370257828335 2 -1 -1
2018 0 1 0 2.9098612635030743 5.551078211545555 50.03591053568777 2 -1 -1
5248 0 2 0 4.572267361168871 0.40592490612391413 50.00507415785227 2 -1 -1
4491 0 1 0 1.3510069669256253 1.175691719636114 48.10081693475597 2 -1 -1
2255 0 1 0 4.348464020822915 1.0511215760095238 46.66485844094022 2 -1 -1
4490 0 1 0 0.3035740648484388 1.9704705934025724 49.20196456419405 2 -1 -1
2017 0 2 0 2.5528904653834594 6.077205494119779 49.27045210799154 2 -1 -1
6197 0 1 0 6.24668008844401 2.9596984088169807 52.2324349783915 2 0 -1
2256 0 1 0 4.4272217532473 0.15638014627329958 48.012060202017636 2 -1 -1
5729 0 1 0 1.9769328919333355 4.7595182741887045 48.06864029118396 2 -1 -1
5055 0 1 0 1.5469424410037347 0.393189521061582 49.96727860008491 2 -2 -1
5250 0 1 0 3.5858574498449345 0.05890355120411502 50.1377609037108 2 -1 -1
3401 0 1 0 2.803186272299963 4.2642368603784435 58.260305151200065 2 -1 -1
1450 0 2 0 1.9675401701109774 1.2049684998490322 53.75972923367362 1 -1 -1
3402 0 1 0 1.746370835859564 3.8059346143504182 57.22721045956204 2 -1 -1
4830 0 1 0 0.446411580023844 2.3131221258176247 53.23889746185389 2 -2 -1
1451 0 1 0 2.684855078145123 1.5905265110396507 53.28288247020231 1 -1 -1
340 0 2 0 3.6152618890971904 4.964293519480091 59.77652660441233 2 -1 -1
4858 0 2 0 3.1698933975507964 1.418098472821976 56.32000919236704 3 -2 -1
2530 0 2 0 6.176706181750731 2.8565988374574567 56.48529581846841 2 -1 -1
5755 0 2 0 4.365405308528332 4.301641809101449 55.166797343137695 2 -1 -1
2532 0 1 0 5.983016837255084 1.8934822552470887 56.352783594627645 2 -1 -1
5216 0 1 0 0.7791612395658344 5.792946521598122 54.15974333035259 2 -2 -1
2531 0 1 0 5.432609547846505 3.3663577281489463 56.016319910148134 2 -1 -1
4859 0 1 0 2.7328296574356394 0.8616729915702948 56.96113564599228 3 -2 -1
4860 0 1 0 3.1948216371607314 2.2300104862970045 56.82442264617927 3 -2 -1
4617 0 1 0 4.308381209509986 3.370295175770449 53.56287189018158 2 0 -1
3228 0 1 0 5.666919498198759 1.4854723512518515 53.33110196610362 2 -1 -1
3400 0 2 0 2.6992943612726203 3.8166540304564425 57.44231195163382 2 -1 -1
1452 0 1 0 2.1132676084231083 1.4062639499122924 54.68418075166402 1 -1 -1
5756 0 1 0 4.775702531471555 5.2513484468859435 55.2163011031584 2 -1 -1
5757 0 1 0 3.7237485864705775 4.190105454133116 55.90077355194816 2 -1 -1
4615 0 2 0 4.337836985169258 2.698509964410626 52.82088603346839 2 0 -1
5154 0 1 0 4.58012093620076 0.24158922656762605 58.64868262876355 2 -1 -1
3227 0 1 0 5.967951877253373 0.061821133195433677 52.9194632693894 2 -1 -1
3226 0 2 0 6.252594837582184 0.7791141373638701 53.55125508315253 2 -1 -1
1769 0 1 0 5.963584294899465 1.724599236705823 59.81671965296155 1 -1 -1
4917 0 1 0 3.7453313484338215 5.501540316692441 66.22455307531845 2 -1 -1
3372 0 1 0 2.9592458447807615 2.9388958341193647 62.88708916369745 2 -1 -1
3370 0 2 0 2.362428200668529 2.8627872722550323 63.64790407318787 2 -1 -1
831 0 1 0 2.119888703628404 0.9202788398197265 66.47662216950661 1 -1 -1
4916 0 1 0 2.287852967056292 5.638454411635864 65.70337540729795 2 -1 -1
342 0 1 0 3.8218802805405514 4.217752849778608 60.40524635994014 2 -1 -1
3371 0 1 0 2.614377983963486 3.5293845993374053 64.31178605954773 2 -1 -1
3441 0 1 0 3.880701964354455 5.864416818920324 63.6684925304343 1 -2 -1
1768 0 2 0 5.642856939172269 0.8402117270283448 60.061209184320035 1 -1 -1
5512 0 2 0 5.114449606264201 2.268865171231508 65.0161377155289 2 -1 -1
5514 0 1 0 4.699168507322232 1.4038104042500978 65.23360373250003 2 -1 -1
1972 0 2 0 4.019194683235922 2.727665936561565 61.49152494873569 2 -1 -1
2409 0 1 0 0.6216905041469495 3.0984644299826676 62.8452748161796 2 -1 -1
5103 0 1 0 5.0523738774591225 3.7869844228657064 66.39006813085602 3 -1 -1
1974 0 1 0 4.800416424199729 2.8327124744907497 62.149939785268 2 -1 -1
1973 0 1 0 4.3255037420533355 1.793031614022614 61.12121047901006 2 -1 -1
5821 0 2 0 2.6784385081693136 0.20956311353467852 64.79416595279683 2 -1 -1
5513 0 1 0 6.1124061018645355 2.197966029754652 65.26938564577891 2 -1 -1
5822 0 1 0 2.4186258231812254 1.0813457126805641 64.48093740014072 2 -1 -1
3391 0 2 0 0.6731470993689437 4.356665724276914 66.46993512933854 2 -1 -1
4915 0 2 0 3.1933973021631545 5.711686871907544 65.45986821613069 2 -1 -1
5892 0 1 0 2.151408300693482 5.46476894804768 60.786411633324526 2 -1 -1
5890 0 2 0 1.2520369208422848 5.881990709633908 60.81919497227297 2 -1 -1
829 0 2 0 1.4725184737006627 1.0980374197428153 67.18610451494716 1 -1 -1
5101 0 2 0 5.015007453874309 4.491423412134269 67.05349297109576 3 -1 -1
3439 0 2 0 4.377976087926921 5.768901218726931 62.80168128568566 1 -2 -1
3392 0 1 0 0.601852625195559 4.317508466410773 67.43375218510913 2 -1 -1
830 0 1 0 1.334771620511647 2.0813344865306904 67.15470028218418 1 -1 -1
4520 0 1 0 5.954008114950384 4.871406728916082 62.53157534712946 2 -1 -1
5891 0 1 0 0.6691486083803468 5.102511545997401 60.8836926973127 2 -1 -1
1770 0 1 0 6.347554486872444 0.18827518016511238 60.25421152290499 1 -1 -1
341 0 1 0 4.129844410680111 5.771872915074778 60.14018230219085 2 -1 -1
952 0 2 0 1.8580910755112896 0.3810692120125636 70.04822917666891 2 -1 -1
1808 0 1 0 1.707458560566175 5.004109431301061 69.40926139131545 2 -1 -1
5591 0 1 0 2.7418239355088674 1.7722315454995041 70.91941211002268 2 0 -1
5592 0 1 0 2.839802973370507 3.3460154828563717 70.7174803364587 2 0 -1
6160 0 2 0 6.396515337268937 5.451075034066416 70.08148937700857 2 -1 -1
5590 0 2 0 3.2157398660137044 2.567338413048186 71.20707016751287 2 0 -1
2668 0 2 0 3.1455957789584796 5.982786857350506 69.27542766276227 2 -2 -1
953 0 1 0 1.84638822311532 0.6124343328975601 69.09328126334839 2 -1 -1
1807 0 2 0 1.0816483275012745 4.223531368728403 69.36247094485064 2 -1 -1
2015 0 1 0 4.8574934872604665 2.5449104710137718 70.25563453304042 2 -1 -1
6161 0 1 0 5.980153525524365 4.572178391483766 70.11259854492495 2 -1 -1
5102 0 1 0 4.932636233055224 3.952308241142834 67.87488790835306 3 -1 -1
1809 0 1 0 0.29247910675366234 4.570383951686955 69.83580234164668 2 -1 -1
2014 0 2 0 5.578703962713196 2.994363442644521 69.74571676489523 2 -1 -1
2669 0 1 0 4.049614781069959 6.010166296046213 68.99233910096326 2 -2 -1
3160 0 2 0 0.23691591191206804 8.708987539446497 43.392114777386574 2 -1 -1
2619 0 1 0 3.5966943159242155 10.144623358985505 44.04574587270866 1 -1 -1
2617 0 2 0 2.801890770119358 9.977394184607224 44.534888613717975 1 -1 -1
3161 0 1 0 1.1719434437624987 8.998164351120286 43.567010723274706 2 -1 -1
2243 0 1 0 0.01447611451668962 7.4859035412859845 44.92060034838642 2 -1 -1
5825 0 1 0 1.0476012451393844 11.46935406033999 47.45531272482349 2 -2 -1
2977 0 2 0 4.178603445885594 10.45397515359762 48.65039086675445 2 -1 -1
4058 0 1 0 3.964309684340946 7.462466109133901 47.363497970796985 2 -1 -1
5626 0 2 0 4.207726419786883 7.673814041773441 51.34488557831694 2 -1 -1
5104 0 2 0 1.1634800733892616 8.20738415819984 50.81953612454476 2 -1 -1
4059 0 1 0 5.341293903182179 6.943460954865913 47.94943550903831 2 -1 -1
4057 0 2 0 4.689495457346332 7.633193651001166 48.031796020092514 2 -1 -1
2978 0 1 0 4.187277834409906 9.570436775481634 48.39834835987977 2 -1 -1
5628 0 1 0 4.222881059797411 8.281600379936739 50.591792921623366 2 -1 -1
5843 0 1 0 1.4024486146962056 11.55034172621333 50.99707623654677 2 -1 -1
5842 0 2 0 1.8356251676890272 10.960275051170193 50.35389592697752 2 -1 -1
69 0 1 0 5.791856360126044 10.811388226036168 49.3500579398927 2 -2 -1
1795 0 2 0 2.6961350911797446 7.43787601678974 46.23758666113343 2 -1 -1
5824 0 2 0 0.17930366945016293 11.306036211909676 47.97510491436282 2 -2 -1
1796 0 1 0 2.62516496277765 8.264730964790518 45.658969726249275 2 -1 -1
2842 0 2 0 2.7372291934479054 11.894105940516164 46.75467768630822 2 -1 -1
5627 0 1 0 5.0045823638662705 7.10546927144223 51.23545221298235 2 -1 -1
5844 0 1 0 1.4649424604109766 10.040087015822099 50.533498863727004 2 -1 -1
2979 0 1 0 3.467761332819974 10.576723511700465 49.315521501897116 2 -1 -1
1797 0 1 0 1.817162434590198 6.984979637293905 46.1944915909833 2 -1 -1
5826 0 1 0 0.6671811753289755 11.088431410445885 48.84348026894308 2 -2 -1
2843 0 1 0 3.4097950917998654 11.264551705356643 47.131662035886386 2 -1 -1
2618 0 1 0 2.6326941172547635 10.831681166887329 45.08649514925705 1 -1 -1
5106 0 1 0 1.5776212263884817 7.609208143731639 50.13322100308163 2 -1 -1
5105 0 1 0 0.31706914184144586 7.823828407603584 51.1321542189787 2 -1 -1
2019 0 1 0 3.315371769287865 6.685465736184402 48.98112090803598 2 -1 -1
3975 0 1 0 1.831076503460546 7.758232220341631 52.36642445492751 2 -1 -1
5328 0 1 0 1.312710549465688 10.400166978284867 59.23958202949057 2 -1 -1
2503 0 2 0 4.698697144747443 7.147198923342765 55.25682937945455 1 -1 -1
1564 0 2 0 2.5688442579299196 11.354433922098428 58.084211899722455 1 -2 -1
1565 0 1 0 2.313306247889171 11.323596956470693 57.15478735912229 1 -2 -1
3628 0 2 0 0.34661525960550876 9.664841813157459 54.41946984583327 2 -1 -1
5326 0 2 0 0.5955264010069782 9.929561993083865 59.737457062179274 2 -1 -1
3630 0 1 0 0.05093505878023 9.984777928128183 53.50807699456301 2 -1 -1
2505 0 1 0 4.318363009463392 7.457006925945839 56.10544156211376 1 -1 -1
4355 0 1 0 1.2227138296392885 6.750630778147037 59.427818514356844 2 -1 -1
1102 0 2 0 4.551444111365846 9.287959616495176 53.41471932280852 1 -1 -1
4899 0 1 0 3.4252372139691443 9.578120431627637 57.811573320233414 2 -2 -1
4898 0 1 0 2.774670216644524 8.191865371081438 58.10459880204259 2 -2 -1
4897 0 2 0 3.6351051845204196 8.629208773111252 57.892920254049734 2 -2 -1
1103 0 1 0 4.280094327985607 8.699659845744632 52.634342345726246 1 -1 -1
4354 0 2 0 1.1099872078613244 7.390376506500682 58.652613428722255 2 -1 -1
6009 0 1 0 1.5150549134031426 11.030739552962041 55.003858980615796 2 -1 -1
4356 0 1 0 0.6972884347415113 8.162256094463505 59.05221240518987 2 -1 -1
3974 0 1 0 2.769494116147443 7.048538137889036 53.35454400748279 2 -1 -1
3629 0 1 0 0.6171813161550643 8.745328901586493 54.30351837720194 2 -1 -1
3973 0 2 0 1.8421448449409914 7.21204878917531 53.157471332602036 2 -1 -1
1104 0 1 0 3.738766022283598 9.72583880845052 53.74163097439006 1 -1 -1
4733 0 1 0 5.854043392327135 10.399643440180713 52.99481961799047 3 -2 -1
2504 0 1 0 4.858519880811305 7.959692892552677 54.656396493809076 1 -1 -1
4374 0 1 0 4.518352473894207 7.752220190826553 59.09018951079048 2 -1 -1
3083 0 1 0 0.2662422486722894 6.21794912898558 57.68938379910194 2 -1 -1
1566 0 1 0 3.2692773270879845 12.033066002905214 58.127929059239605 1 -2 -1
6007 0 2 0 1.9865459249743724 11.742078560219785 55.5685431943979 2 -1 -1
6191 0 1 0 6.296233848116978 11.429432504390562 57.33098711822058 2 -1 -1
6190 0 2 0 6.159414633480219 11.732441974429946 58.225353686532586 2 -1 -1
6192 0 1 0 5.293130308540542 12.21851666456272 58.22192974765337 2 -1 -1
4372 0 2 0 4.899015937257377 7.373200887015728 59.96920257509079 2 -1 -1
4660 0 2 0 5.1386003212024915 9.286011882561445 66.78129978340084 2 0 -1
3263 0 1 0 1.1318519463440264 10.709031328178959 62.75799710270688 2 -1 -1
5327 0 1 0 0.8028855571866316 10.05697542691063 60.70157745829913 2 -1 -1
3836 0 1 0 4.478902961678704 11.953442758592011 64.2821532218954 2 -1 -1
3793 0 2 0 0.9634354658244471 7.130377301164569 63.52281103535108 3 -1 -1
3531 0 1 0 1.00578046830593 11.73503511961532 66.63208747955271 2 -2 -1
3529 0 2 0 1.2371097878072357 11.095119840193513 65.92632703742663 2 -2 -1
3440 0 1 0 4.890621589819042 6.602499312040424 62.62144967881281 1 -2 -1
3835 0 2 0 5.396584961726081 11.704239542767368 64.62676852930751 2 -1 -1
3837 0 1 0 5.360174539686785 10.71264307991242 64.90046853496672 2 -1 -1
3068 0 1 0 3.699332582271158 10.137173452379391 61.570737492748826 2 -1 -1
5774 0 1 0 2.760183632113855 7.878407298149383 65.63584279576494 2 0 -1
3069 0 1 0 4.4527667531012085 10.296374674551064 60.02288736160836 2 -1 -1
3262 0 2 0 1.8616327175006675 10.18426988497764 62.330355796202504 2 -1 -1
4662 0 1 0 5.429301489381768 8.436520461278091 67.1399986529353 2 0 -1
4373 0 1 0 4.660909526371394 8.051045692129025 60.62736944441314 2 -1 -1
1089 0 1 0 5.835059166228697 6.195802142203771 67.31758766626112 2 -1 -1
3530 0 1 0 1.4538517439653091 10.238905853090086 66.38786668041178 2 -2 -1
3795 0 1 0 1.1971313056025885 6.714341593699856 62.70582998384983 3 -1 -1
5773 0 2 0 1.897285216982637 8.11492110348434 65.96018637707486 2 0 -1
3264 0 1 0 1.7001558156795398 9.296799986483471 62.6844831486394 2 -1 -1
5775 0 1 0 1.4214892680083633 7.709611388102147 65.17594620056883 2 0 -1
3067 0 2 0 4.577442888149366 10.195768046670565 61.00615482125692 2 -1 -1
1076 0 1 0 0.0801031482361511 11.322253200498915 64.50790759214841 2 -1 -1
4661 0 1 0 5.632620193688341 9.838505076406694 67.4833851766003 2 0 -1
3794 0 1 0 0.01266402666067279 6.950675245747734 63.64415515448646 3 -1 -1
2670 0 1 0 2.997858573048597 6.911387035269736 69.08244741462596 2 -2 -1
1063 0 2 0 1.2312050448570921 8.221057451053484 68.59020415849832 1 -1 -1
1065 0 1 0 1.4957714244274112 9.116595709848376 68.84660180016321 1 -1 -1
4569 0 1 0 3.1934083523469066 11.418096565756942 67.98917573640773 2 -1 -1
862 0 2 0 6.379381062020105 11.07538970927364 69.0755641226241 1 -1 -1
4567 0 2 0 2.9660316991812583 10.57043663717798 68.44263764906266 2 -1 -1
863 0 1 0 5.456340817865971 11.425365184110017 69.09369457765266 1 -1 -1
4568 0 1 0 3.5702295294443003 10.015096632913277 67.98672076388948 2 -1 -1
1087 0 2 0 6.069204041791993 7.034612285880921 67.7538676302933 2 -1 -1
1088 0 1 0 6.307894057280696 6.788934001543077 68.61556718151724 2 -1 -1
1064 0 1 0 1.4871718351739656 8.154237085169113 67.63092874059627 1 -1 -1
5733 0 1 0 4.371801966137868 13.2380381819042 49.931793467580405 2 -1 -1
2818 0 2 0 4.0539751974151255 13.928702349166748 45.61204936896862 2 -1 -1
3754 0 2 0 1.0024211867852935 14.34976699909791 49.05591731566917 2 -1 -1
5958 0 1 0 1.1831567400797018 17.37791109282255 47.7765972924074 2 -1 -1
5731 0 2 0 4.394714575318547 14.015603506342652 49.3261627166347 2 -1 -1
1690 0 2 0 4.549504585835508 16.40164438441918 50.5043346941785 2 -1 -1
6214 0 2 0 2.749510021878334 16.306113247314276 47.3243541596831 2 -1 -1
489 0 1 0 1.2028024400437942 14.131159151813899 50.62286129013679 1 -2 -1
2820 0 1 0 5.000296317848387 13.967958601751585 45.74371092420091 2 -1 -1
4257 0 1 0 1.686312080165096 17.84151165544564 51.174730486680225 2 -1 -1
4255 0 2 0 1.23896538748943 17.14306142938495 50.6125092421022 2 -1 -1
487 0 2 0 1.4677829139115872 13.779908897556435 51.521219532525045 1 -2 -1
3755 0 1 0 0.9640041981788212 13.531216789833822 48.558944203277726 2 -1 -1
6216 0 1 0 2.453638677221692 15.57436984039087 47.85658785089043 2 -1 -1
4256 0 1 0 1.0460142633286258 17.6226247348892 49.781722952002895 2 -1 -1
1691 0 1 0 4.672055845090816 16.71625516477783 51.44824918192277 2 -1 -1
4163 0 1 0 6.0890355974510415 13.48791629540253 47.69350317208635 1 -1 -1
2819 0 1 0 3.603083158806091 14.699085132124667 45.909890652457534 2 -1 -1
5956 0 2 0 0.4202814690629284 17.80624399703978 48.16819156821836 2 -1 -1
2844 0 1 0 3.14614316233169 12.785863709240836 46.52396640888016 2 -1 -1
5732 0 1 0 4.534871797327826 14.828575910825082 49.902892585361094 2 -1 -1
1692 0 1 0 4.240762960336123 17.143092563039204 49.916298186373226 2 -1 -1
488 0 1 0 2.0518511944828384 14.501373225028152 51.87106713741822 1 -2 -1
6215 0 1 0 3.275498412094101 16.96703965477833 47.771773910742525 2 -1 -1
5436 0 1 0 0.2441080561666139 17.013738255892704 52.00452010560165 2 -1 -1
2183 0 1 0 6.261055035200797 16.738195343245287 50.22463297216208 2 -1 -1
3756 0 1 0 0.156804432208319 14.851492901346237 48.88369372585216 2 -1 -1
655 0 2 0 3.8704475618325045 18.448254173404095 48.851065008757054 1 -1 -1
6235 0 2 0 4.0288692058032245 15.82021309849966 56.53475108226035 2 -1 -1
6237 0 1 0 3.8398532690713925 14.909091591553386 56.198145929506815 2 -1 -1
3709 0 2 0 4.2924904041096665 13.754625574034009 59.27626736401291 2 -1 -1
6236 0 1 0 3.648432859161889 16.409575716647357 55.826201512038374 2 -1 -1
72 0 1 0 2.348305856326224 15.06629526415455 54.34531112799197 2 -1 -1
2999 0 1 0 5.284823306001941 17.285520363913292 53.86136712672365 2 -1 -1
5021 0 1 0 0.309303505131889 13.483978100573797 52.66737259572069 2 -2 -1
71 0 1 0 3.7132407750861343 15.60121294709943 53.721764789481504 2 -1 -1
3599 0 1 0 5.286731526210038 13.261209391796584 55.43390365496014 2 -2 -1
1392 0 1 0 0.512694671764643 14.712815254898302 56.2126878408805 2 -1 -1
1391 0 1 0 0.4007790711943984 13.892311916758109 54.970179952616554 2 -1 -1
4118 0 1 0 1.4452133593689813 15.78565206685371 58.98623329086233 2 -1 -1
2998 0 2 0 4.521611571341598 17.020844611098894 53.25777225858801 2 -1 -1
3598 0 2 0 4.584450296448959 13.152355147588072 56.12152920787515 2 -2 -1
4119 0 1 0 2.7241123385711474 16.248339155224198 58.14680531428276 2 -1 -1
4117 0 2 0 2.386566619270302 16.06510530620759 59.02863908170095 2 -1 -1
70 0 2 0 3.1313631177844257 14.746826830948827 53.86355490225908 2 -1 -1
3000 0 1 0 3.9012841515723884 17.807325682516115 53.04823780515402 2 -1 -1
3711 0 1 0 3.5561904931621027 14.390304314401588 59.39536959084963 2 -1 -1
3458 0 1 0 5.972442064385247 15.65758216449694 57.06036200301656 2 -2 -1
4172 0 1 0 2.449312064797732 18.473049693595463 54.98452852891884 2 -1 -1
4173 0 1 0 3.2692403835267094 18.279116900295907 56.25449365323433 2 -1 -1
1390 0 2 0 1.087445778373355 14.379424020400604 55.489260445999086 2 -1 -1
4436 0 1 0 3.7596817119377177 13.445566218844133 52.95058180817416 2 -1 -1
4435 0 2 0 4.4417994494747965 12.797228471118816 52.606590936489766 2 -1 -1
4171 0 2 0 2.3816735730770335 18.01861380713734 55.858736550516916 2 -1 -1
1307 0 1 0 5.5075825668747465 18.260457151532616 57.74068314069206 1 -1 -1
4437 0 1 0 5.174471556369592 12.98825922953654 53.23918938375107 2 -1 -1
3600 0 1 0 4.012780553308115 12.574974004275465 55.599969508786565 2 -2 -1
6008 0 1 0 1.5760884455221267 12.662787532112327 55.46469485570962 2 -1 -1
4800 0 1 0 6.32488784682231 17.032552008554582 59.664303847393164 2 -2 -1
3452 0 1 0 5.807848261421659 13.96420381883798 61.81427321827704 2 -2 -1
3453 0 1 0 5.360884489753323 12.56593655901602 62.3886431089001 2 -2 -1
3265 0 2 0 2.2023147674751336 15.105573442610481 67.10049828779036 2 -1 -1
2941 0 2 0 2.75590011619695 18.077359108507515 67.34035871477306 2 -1 -1
1384 0 2 0 4.055755906794684 15.999471002989523 63.27196661980886 1 -1 -1
3284 0 1 0 0.2064333160694675 18.1286695964631 64.50348327384452 2 -1 -1
2691 0 1 0 0.29271282369768215 17.74809775549811 61.60682747260364 2 -1 -1
1386 0 1 0 4.264866128890079 15.107533541341521 62.87157926501675 1 -1 -1
5521 0 2 0 4.89366430325686 17.11012245683795 60.530864734018785 2 -1 -1
3710 0 1 0 4.314059886323888 13.477194072643286 60.21977021712232 2 -1 -1
5522 0 1 0 4.859394274706794 16.910971299613117 61.50768902624302 2 -1 -1
1385 0 1 0 4.942393093030745 16.375374877446784 63.60419836008634 1 -1 -1
172 0 2 0 2.480354979608297 13.021609670931845 64.3079217845252 2 -2 -1
4419 0 1 0 1.3362365240798257 13.133319112470863 61.44080477720944 2 -1 -1
3266 0 1 0 1.7540585733426286 15.339202606314295 66.27892817646413 2 -1 -1
1922 0 1 0 0.8881383324473666 16.259155113487893 63.65780730158156 2 -2 -1
1921 0 2 0 1.67023034703312 15.935211700462359 64.15970951952102 2 -2 -1
4418 0 1 0 2.1292743397237484 13.765894065065746 62.52942549370471 2 -1 -1
1923 0 1 0 2.439008198502896 16.297206503574486 63.759041534392765 2 -2 -1
5580 0 1 0 4.766074342487809 12.921271051410505 66.59679150958799 2 -1 -1
173 0 1 0 2.5464525190823704 13.79438305443988 64.857455491543 2 -2 -1
5579 0 1 0 3.711767845400678 13.892876191549298 67.21427828346611 2 -1 -1
1792 0 2 0 1.6325549360091514 18.294152622478094 60.624893558185526 2 -2 -1
2507 0 1 0 5.717558944183473 17.34431351470259 65.17825735571061 2 -1 -1
3451 0 2 0 5.052138104082206 13.419013173964057 61.99723898840405 2 -2 -1
4417 0 2 0 1.7218352228327485 14.00407803119117 61.703347704392044 2 -1 -1
174 0 1 0 2.0319224460299328 12.402886341730737 64.88472783938485 2 -2 -1
4631 0 1 0 3.6600027100399233 18.312842156023716 65.82371953448526 2 -2 -1
1793 0 1 0 2.333230696090269 18.26024101415111 61.39377423747148 2 -2 -1
1794 0 1 0 1.9168077072591807 17.523224828152784 60.079741891028654 2 -2 -1
5578 0 2 0 4.341359652020591 13.141701525356611 67.40355978985161 2 -1 -1
5523 0 1 0 4.077383352394622 16.730497460396716 60.178237067815225 2 -1 -1
914 0 1 0 6.159921184425736 18.308473177736836 69.35929856383392 2 -1 -1
4102 0 2 0 0.3159398862251896 13.09906904695387 67.82256884535578 2 -1 -1
1379 0 1 0 5.904385131879497 14.756392435849026 67.78483531389062 1 -1 -1
3267 0 1 0 1.62304291200044 14.52222628893855 67.62064021819768 2 -1 -1
2943 0 1 0 2.774907818299153 17.202009809428787 67.65273290036312 2 -1 -1
656 0 1 0 3.0529517503148815 19.00682396087065 48.91526378446025 1 -1 -1
964 0 2 0 2.2637027860638894 21.55721843819371 46.45259704828394 1 -1 -1
1858 0 2 0 4.861131927420345 20.0527948958838 51.19733988704432 2 -2 -1
965 0 1 0 3.2217271858071643 21.760130873070533 46.79337173885119 1 -1 -1
1738 0 2 0 1.3159045163748848 20.28707228560713 49.651926026120854 2 -2 -1
657 0 1 0 4.533784084355881 18.969576176443624 48.42236340950091 1 -1 -1
4724 0 1 0 0.32913790627354417 20.140798943794806 46.01299284904874 3 -2 -1
4426 0 2 0 4.413760868278885 22.577014157318445 48.49201144658428 2 -1 -1
1739 0 1 0 1.579169780325478 20.538747239037907 48.72901055379003 2 -2 -1
5096 0 1 0 2.4167346347109033 23.092038079515632 51.25119250618348 2 -2 -1
966 0 1 0 2.0485859684669108 22.42654723850287 46.17176388059861 1 -1 -1
5095 0 2 0 1.9800780255303487 22.350007215737236 51.708326318297026 2 -2 -1
4427 0 1 0 3.899812931435006 23.402804330570905 48.478944640726475 2 -1 -1
5097 0 1 0 1.838329093536978 21.62723634778879 51.08466771204505 2 -2 -1
1740 0 1 0 0.3099691272589451 20.27179236756703 49.70252602265233 2 -2 -1
1859 0 1 0 4.857395968013021 20.592104854803942 50.407926381280326 2 -2 -1
5957 0 1 0 0.2759260971007976 18.65366134707727 47.72452285635461 2 -1 -1
2465 0 1 0 5.731380135341962 24.64069575679773 50.07131363082774 2 -2 -1
1860 0 1 0 5.587385205590105 20.371764209952627 51.706012223930294 2 -2 -1
4428 0 1 0 5.208287647414317 22.713973674254838 47.91027826370045 2 -1 -1
4905 0 1 0 0.5143329036097892 22.798988645247412 52.454111142487584 2 -2 -1
1876 0 2 0 5.595122861235533 23.090068360115477 59.24199309401705 2 -2 -1
1306 0 2 0 4.916867358114894 18.977563536884713 57.40161995822186 1 -1 -1
2284 0 2 0 5.608795118946493 20.858910674121862 54.12629977513512 2 -1 -1
4420 0 2 0 2.627673951600637 19.253896617677178 53.088106324861194 2 -1 -1
1124 0 1 0 6.054773530601346 24.627894301708093 52.92182692551255 2 -2 -1
5075 0 1 0 4.0477176181627765 21.703190172019383 54.63830691086905 2 -2 -1
2286 0 1 0 6.216975208925267 21.599745706579988 54.30290156107022 2 -1 -1
3051 0 1 0 1.391256815403626 22.012238850267032 55.45104974922356 2 -1 -1
5717 0 1 0 3.3798067272275993 23.408615391960872 58.70052802317634 2 -2 -1
5716 0 2 0 2.699107707071201 22.645982411093893 58.45933081083067 2 -2 -1
4904 0 1 0 0.601343838077195 23.563294336808404 53.75959725301197 2 -2 -1
5718 0 1 0 3.084384202177489 21.782446421792155 58.73072550399071 2 -2 -1
4421 0 1 0 1.7389647938380306 19.694340300942017 53.068795191603776 2 -1 -1
5074 0 2 0 3.2426190573775564 22.23319800572204 54.44048150754842 2 -2 -1
4422 0 1 0 3.2399238395057504 19.976570744166423 52.70290465419373 2 -1 -1
484 0 2 0 0.40058384116349977 19.36962836257945 57.84417477848007 2 -2 -1
486 0 1 0 1.101138280025862 19.093065037958446 58.458082813559955 2 -2 -1
485 0 1 0 0.9624966183409274 19.88442365963203 57.21190717902531 2 -2 -1
2285 0 1 0 6.130385136612184 20.11265324682318 54.48289997522458 2 -1 -1
3049 0 2 0 0.9378751279086437 22.06029983187057 56.286949569329266 2 -1 -1
4719 0 1 0 4.26133828384342 19.852986217741872 59.46111683019825 2 -2 -1
5076 0 1 0 3.0176693398904733 22.191910878700607 53.482876156342876 2 -2 -1
1877 0 1 0 5.370198315417095 22.166084895108106 59.48270916602703 2 -2 -1
3050 0 1 0 1.6191470613470371 22.23874853239453 57.00781097296057 2 -1 -1
1308 0 1 0 5.542453639782271 19.698418669763516 57.26314967794665 1 -1 -1
2547 0 1 0 3.7520095044902786 23.93396497054432 54.76326234472588 2 -1 -1
2181 0 1 0 6.352665092984665 23.1849381958887 57.691462522258924 2 -2 -1
1878 0 1 0 5.0384043194028685 23.668004372735396 59.82233383640612 2 -2 -1
4630 0 2 0 4.361308692646148 18.60096417277202 65.19802431212788 2 -2 -1
244 0 2 0 5.154879042936359 21.379450273083485 65.20683133474962 2 -2 -1
5130 0 1 0 3.7369530671003286 24.371430409731108 61.24920851598696 2 -2 -1
1534 0 2 0 0.8012492306987611 23.209856622312216 65.92599940937029 1 -2 -1
4717 0 2 0 4.297626992763268 20.600027414150347 60.09543005187608 2 -2 -1
4455 0 1 0 3.8613561312715468 19.223038526893184 63.532456927112904 2 -1 -1
1302 0 1 0 4.925220360475805 22.648755845973085 66.72182101320598 2 -1 -1
1274 0 1 0 1.3989676668278483 24.051941592865894 61.44834918687379 2 -1 -1
5128 0 2 0 4.727626073205307 24.581456310574193 61.119724265171264 2 -2 -1
4718 0 1 0 4.310291837534794 20.24787948459004 60.97176751995739 2 -2 -1
598 0 2 0 2.7952132241011762 22.399973256333123 64.08523441681376 1 -2 -1
599 0 1 0 2.5572181982145956 23.113099205963962 63.472633795676316 1 -2 -1
600 0 1 0 2.0207499320868165 22.488310298198954 64.70866039138569 1 -2 -1
4453 0 2 0 3.435525572035423 19.257971253039724 62.62143708531538 2 -1 -1
1535 0 1 0 0.007977878742802385 22.614221740172365 65.88002393985467 1 -2 -1
245 0 1 0 6.087238125302688 21.39755046780543 64.86339380761845 2 -2 -1
1536 0 1 0 1.324549806216646 23.007714809724803 66.68027521443425 1 -2 -1
4632 0 1 0 4.675396617649495 19.46427111894997 65.56364736019493 2 -2 -1
4454 0 1 0 2.817948792097135 20.07247715891715 62.76575436675666 2 -1 -1
246 0 1 0 4.53593916978165 21.89614868286815 64.64458345071739 2 -2 -1
1273 0 2 0 2.19108836836433 24.346332582485335 61.95427538030068 2 -1 -1
3285 0 1 0 0.44872439558785165 18.595646032409963 65.89799904423687 2 -1 -1
1084 0 2 0 4.836773300549932 19.820955135428004 68.15455687108825 2 -1 -1
202 0 2 0 1.2772431914559075 22.61068815670393 68.77405292685694 2 -2 -1
204 0 1 0 2.150595028722715 22.142057737724315 68.83042766390363 2 -2 -1
203 0 1 0 0.6562746229175574 21.864509135201008 68.89439559035942 2 -2 -1
1086 0 1 0 4.515291407357604 20.742531314443752 67.99036999647781 2 -1 -1
1300 0 2 0 4.49912972476809 22.61774533444939 67.5950817371353 2 -1 -1
1301 0 1 0 4.699775101286751 23.450942085974763 68.05250710307746 2 -1 -1
1085 0 1 0 5.767482433707125 19.66746520317484 67.6877528743585 2 -1 -1
2942 0 1 0 3.327686948205411 18.58838988636879 67.90206121430528 2 -1 -1
2011 0 2 0 5.295781910476957 27.193362063800894 47.46204052249185 2 -2 -1
5613 0 1 0 0.4587435313185941 26.76834418941074 48.325291372003534 2 -2 -1
280 0 2 0 0.08945985821776309 29.113837163288178 51.328673399716905 1 -2 -1
5291 0 1 0 3.1948138330593907 29.4476879324785 48.612359381722705 2 -2 -1
2573 0 1 0 2.4744134293118574 25.3847283882763 51.20160424948247 2 -1 -1
445 0 2 0 0.8860293925081709 26.416618734186883 51.82907647620864 2 -2 -1
5292 0 1 0 4.565506313432733 28.48329888086134 48.36753196927051 2 -2 -1
5611 0 2 0 0.7595456540087109 25.830670799340893 48.63222553195783 2 -2 -1
281 0 1 0 0.22696473778323864 28.3440796956266 51.97402972866625 1 -2 -1
5612 0 1 0 1.1048275530804137 26.17421089576506 49.51651915521977 2 -2 -1
3758 0 1 0 3.576197863961937 29.612620755377712 50.584045308275925 3 -2 -1
1346 0 1 0 2.928407888621654 30.696985961930288 46.6415019370879 1 -1 -1
1123 0 2 0 5.346581739715603 25.126405633847956 52.44526966933434 2 -2 -1
3047 0 1 0 1.907396844088931 24.95750384730909 46.99423531024116 2 -1 -1
3177 0 1 0 3.0388596043120986 28.364402622210967 45.7436496962724 2 -2 -1