LAMMPS (4 Feb 2025)
OMP_NUM_THREADS environment is not set. Defaulting to 1 thread. (src/comm.cpp:99)
  using 1 OpenMP thread(s) per MPI task
# LAMMPS script for continuing NVT simulation

atom_modify map yes
newton      on

read_restart nvt_prod.restart.1120000
Reading restart file ...
  restart file = 4 Feb 2025, LAMMPS = 4 Feb 2025
  restoring atom style full from restart
  orthogonal box = (0 0 0) to (154.008 148.2 151.07609)
  16 by 8 by 8 MPI processor grid
  pair style symmetrix/mace stores no restart info
  9540 atoms
Finding 1-2 1-3 1-4 neighbors ...
  special bond factors lj:    0        0        0       
  special bond factors coul:  0        0        0       
     0 = max # of 1-2 neighbors
     0 = max # of 1-3 neighbors
     0 = max # of 1-4 neighbors
     1 = max # of special neighbors
  special bonds CPU = 4.395 seconds
  read_restart CPU = 4.569 seconds

pair_style  symmetrix/mace
pair_coeff  * * ../../../../00-common/models/ch2o-dens-inv_swa-1-6-8.json C H O
Loading MACE model from '../../../../00-common/models/ch2o-dens-inv_swa-1-6-8.json' ... success
  mapping LAMMPS type 1 (C) to MACE type 1
  mapping LAMMPS type 2 (H) to MACE type 0
  mapping LAMMPS type 3 (O) to MACE type 2

group graphene type 1
8640 atoms in group graphene
group H2O type 2 3
900 atoms in group H2O

thermo 1000

######### NVT production for 80 ps #############

dump DUMP1 all atom 100 nvt_prod_14.lammpstrj
timestep 0.001
fix NVT1 graphene nvt temp 300 300 0.1
Resetting global fix info from restart file:
  fix style: nvt, fix ID: NVT1
fix NVT2 H2O nvt temp 300 300 0.1
Resetting global fix info from restart file:
  fix style: nvt, fix ID: NVT2
run 80000
All restart file global fix info was re-assigned
Neighbor list info ...
  update: every = 1 steps, delay = 0 steps, check = yes
  max neighbors/atom: 2000, page size: 100000
  master list distance cutoff = 8
  ghost atom cutoff = 8
  binsize = 4, bins = 39 38 38
  1 neighbor lists, perpetual/occasional/extra = 1 0 0
  (1) pair symmetrix/mace, perpetual
      attributes: full, newton on
      pair build: full/bin
      stencil: full/bin/3d
      bin: standard
Per MPI rank memory allocation (min/avg/max) = 5.913 | 6.129 | 7.376 Mbytes
   Step          Temp          E_pair         E_mol          TotEng         Press     
   1120000   300.14217     -1481125.9      0             -1480755.9      48.014412    
   1121000   301.61945     -1481124.7      0             -1480752.8      28.469976    
   1122000   297.49552     -1481126.8      0             -1480759.9      20.200286    
   1123000   302.39385     -1481120.3      0             -1480747.5      14.729077    
   1124000   301.58994     -1481123.8      0             -1480751.9      15.948638    
   1125000   299.20572     -1481134.1      0             -1480765.2      26.721982    
   1126000   305.20437     -1481126.6      0             -1480750.2      29.30734     
   1127000   301.68551     -1481126.3      0             -1480754.3      51.971162    
   1128000   303.84669     -1481122        0             -1480747.3      81.296145    
   1129000   298.73106     -1481124.1      0             -1480755.8      72.343215    
   1130000   303.05478     -1481122.2      0             -1480748.5      27.77821     
   1131000   297.321       -1481125.6      0             -1480759        47.470055    
   1132000   301.04757     -1481124.8      0             -1480753.7      58.607089    
   1133000   301.16646     -1481127.2      0             -1480755.9      84.017663    
   1134000   303.46661     -1481124.5      0             -1480750.3      46.097849    
   1135000   295.97842     -1481127.9      0             -1480762.9      37.568166    
   1136000   300.91448     -1481122.1      0             -1480751.1      6.5477578    
   1137000   300.21962     -1481127.8      0             -1480757.6      29.98653     
   1138000   297.00241     -1481127.3      0             -1480761.1      39.441571    
   1139000   301.67885     -1481123.9      0             -1480751.9      55.967328    
   1140000   295.49906     -1481127.9      0             -1480763.6      6.2270203    
   1141000   296.97051     -1481122.6      0             -1480756.4      5.1652858    
   1142000   299.47826     -1481121.4      0             -1480752.1     -3.0755342    
   1143000   295.45698     -1481124.8      0             -1480760.5      3.0112177    
   1144000   300.58692     -1481120        0             -1480749.4      56.862566    
   1145000   298.26324     -1481119.7      0             -1480751.9      69.411351    
   1146000   301.8153      -1481124        0             -1480751.9      78.693615    
   1147000   297.50265     -1481122.9      0             -1480756        51.19937     
   1148000   300.11522     -1481128.8      0             -1480758.8      74.592118    
   1149000   300.20151     -1481123.5      0             -1480753.4      104.28918    
   1150000   299.67242     -1481128.3      0             -1480758.8      102.98279    
   1151000   299.50193     -1481125.8      0             -1480756.5      21.436929    
   1152000   302.82336     -1481120.1      0             -1480746.7      47.036702    
   1153000   300.56819     -1481125.7      0             -1480755.1      18.299072    
   1154000   300.98136     -1481125        0             -1480753.9      6.4522608    
   1155000   301.27517     -1481129.4      0             -1480757.9      65.171637    
   1156000   297.05024     -1481120.3      0             -1480754.1      82.88824     
   1157000   298.31362     -1481122.7      0             -1480754.9      48.545764    
   1158000   300.17638     -1481127.8      0             -1480757.7      30.384806    
   1159000   299.6103      -1481120.3      0             -1480750.9      39.817598    
   1160000   299.07472     -1481124.9      0             -1480756.1      74.169878    
   1161000   303.16649     -1481125.9      0             -1480752.1      66.081242    
   1162000   300.28424     -1481126.8      0             -1480756.6      45.386058    
   1163000   298.70815     -1481121.4      0             -1480753.1      31.716886    
   1164000   304.00114     -1481125.4      0             -1480750.5      41.824946    
   1165000   298.67668     -1481124.9      0             -1480756.6      43.071175    
   1166000   301.46494     -1481120.4      0             -1480748.7      75.950711    
   1167000   300.76062     -1481125        0             -1480754.1      70.569109    
   1168000   298.77389     -1481126.2      0             -1480757.8      27.26381     
   1169000   301.74087     -1481124.6      0             -1480752.5      26.632323    
   1170000   296.30454     -1481126.7      0             -1480761.3      42.608027    
   1171000   301.68823     -1481124.3      0             -1480752.3      39.186356    
   1172000   301.47655     -1481132.4      0             -1480760.6      62.74179     
   1173000   299.86412     -1481128.2      0             -1480758.4      61.047245    
   1174000   303.34203     -1481125        0             -1480750.9      63.321216    
   1175000   297.95559     -1481125        0             -1480757.7      31.778852    
   1176000   300.45746     -1481124.5      0             -1480754.1      41.599959    
   1177000   303.59294     -1481122.1      0             -1480747.8      50.408544    
   1178000   295.15689     -1481120.7      0             -1480756.8      33.266362    
   1179000   301.72321     -1481121.6      0             -1480749.6      41.827527    
   1180000   297.21931     -1481125.1      0             -1480758.7      16.895748    
   1181000   301.24359     -1481120.7      0             -1480749.2     -4.173048     
   1182000   296.95032     -1481121.4      0             -1480755.3      17.156138    
   1183000   304.01347     -1481122.6      0             -1480747.8      13.288761    
   1184000   301.75102     -1481127.2      0             -1480755.1      32.46024     
   1185000   298.66945     -1481126.1      0             -1480757.9      11.565202    
   1186000   299.49504     -1481124.9      0             -1480755.6      57.740894    
   1187000   300.43242     -1481130.7      0             -1480760.3      33.340901    
   1188000   299.47703     -1481127.1      0             -1480757.9      50.281244    
   1189000   302.24234     -1481126.1      0             -1480753.4      47.315934    
   1190000   302.17087     -1481131.3      0             -1480758.7      54.521292    
   1191000   299.69488     -1481125.3      0             -1480755.7      67.373652    
   1192000   298.67147     -1481119.1      0             -1480750.8      92.177454    
   1193000   301.79678     -1481116.5      0             -1480744.4      76.909628    
   1194000   301.66515     -1481121.3      0             -1480749.4      74.148905    
   1195000   298.154       -1481119.5      0             -1480751.8      45.195696    
   1196000   298.34197     -1481127.5      0             -1480759.6      61.702454    
   1197000   297.9555      -1481122.7      0             -1480755.3      51.141261    
   1198000   297.24645     -1481119.9      0             -1480753.4      14.891333    
   1199000   301.04027     -1481119.7      0             -1480748.5      24.645888    
   1200000   298.32282     -1481122.3      0             -1480754.5      17.423627    
Loop time of 36132.7 on 1024 procs for 80000 steps with 9540 atoms

Performance: 0.191 ns/day, 125.461 hours/ns, 2.214 timesteps/s, 21.122 katom-step/s
100.0% CPU use with 1024 MPI tasks x 1 OpenMP threads

MPI task timing breakdown:
Section |  min time  |  avg time  |  max time  |%varavg| %total
---------------------------------------------------------------
Pair    | 0.21267    | 3113.9     | 34771      |11237.7 |  8.62
Bond    | 0.0031685  | 0.0097285  | 0.13899    |  15.4 |  0.00
Neigh   | 0.033363   | 0.13606    | 2.3364     |  51.9 |  0.00
Comm    | 0.79719    | 827.31     | 14895      |8453.9 |  2.29
Output  | 6.3725     | 9.8917     | 13.616     |  68.1 |  0.03
Modify  | 9.6865     | 32173      | 36113      |4526.0 | 89.04
Other   |            | 8.375      |            |       |  0.02

Nlocal:        9.31641 ave         238 max           0 min
Histogram: 883 30 102 2 2 1 1 0 2 1
Nghost:         81.959 ave         786 max           0 min
Histogram: 765 3 0 126 105 10 5 2 6 2
Neighs:              0 ave           0 max           0 min
Histogram: 1024 0 0 0 0 0 0 0 0 0
FullNghs:      813.012 ave       39352 max           0 min
Histogram: 913 102 3 1 1 1 0 2 0 1

Total # of neighbors = 832524
Ave neighs/atom = 87.266667
Ave special neighs/atom = 0
Neighbor list builds = 3410
Dangerous builds = 0

write_restart nvt_prod.restart.*
System init for write_restart ...
write_data nvt_prod_final.lammps-data
System init for write_data ...

Total wall time: 10:02:36
