LAMMPS data file via write_data, version 4 Feb 2025, timestep = 1200000, units = metal

9540 atoms
3 atom types

0 154.00799999999998 xlo xhi
0 148.2 ylo yhi
0 151.07609208607428 zlo zhi

Masses

1 12.01099999691024
2 1.007999999740698
3 15.99899999588435

Atoms # full

7446 0 1 0 4.464058888423237 2.777035204659794 131.90999644427504 1 0 1
6774 0 1 0 2.243429515944658 1.5293540950858564 131.94967664862298 1 0 1
6727 0 1 0 3.7426352604553217 3.92745610163122 132.07429000369297 1 0 1
6773 0 1 0 1.5266336996663505 0.2790814827319003 131.87544996916426 1 0 1
7444 0 1 0 4.438702869283643 0.2971155161687884 131.84733952071812 1 0 1
6725 0 1 0 3.720221360067116 1.5214120793995796 131.93040049959575 1 0 1
6776 0 1 0 2.3316493061076673 3.9815189737136776 132.0530327173056 1 0 1
6775 0 1 0 1.5937016641484967 2.805128480423455 132.0855560244678 1 0 1
6764 0 1 0 0.14339243791246256 0.29769072822981124 131.93806841221138 1 0 1
6766 0 1 0 0.16016751869021428 2.7766854168323722 131.9400624664475 1 0 1
7464 0 1 0 8.721051650564732 0.2852502605394639 131.40297630505506 1 0 1
7455 0 1 0 5.875263657899385 2.7961782571901876 131.93839788071418 1 0 1
7466 0 1 0 8.773890953498181 2.7640992450841395 131.69511667188178 1 0 1
7465 0 1 0 8.02488084434561 1.5316327197851978 131.60419883228633 1 0 1
7454 0 1 0 6.5882942123154855 1.5313272714731176 131.7455846703242 1 0 1
7453 0 1 0 5.856951308200116 0.28598719458562377 131.73821329246405 1 0 1
7456 0 1 0 6.646467152908998 3.9641082094919806 132.00821226544238 1 0 1
7467 0 1 0 8.056854506845584 3.9878998257093383 131.93839377327456 1 0 1
7514 0 1 0 6.6327552478963385 13.877186220306836 131.97548599459003 1 0 1
6824 0 1 0 0.1260639518107205 12.658947561421131 132.0827527348871 1 0 1
7450 0 1 0 4.404694991296405 7.681240266807529 132.09255755202622 1 0 1
7448 0 1 0 4.436767059257309 5.183918133032076 132.10175498688486 1 0 1
6729 0 1 0 3.745556905219743 6.437634288925643 132.0038343009294 1 0 1
7525 0 1 0 8.076292583887238 13.852699656001102 132.06654618366133 1 0 1
6777 0 1 0 1.617151813422391 5.195776483739898 132.0889176554432 1 0 1
7522 0 1 0 8.736967014632617 10.12801916060708 132.04193129269876 1 0 1
6778 0 1 0 2.2662154156872654 6.445075826044895 131.96794654141817 1 0 1
6768 0 1 0 0.1625658062724916 5.206613095444361 132.0551952091351 1 0 1
7461 0 1 0 8.031644110202441 8.905058457573464 132.0518145086225 1 0 1
7468 0 1 0 8.797160511830294 5.2129001044586865 131.89946222781563 1 0 1
7459 0 1 0 5.880995817249787 7.671681884942861 132.10095833893322 1 0 1
7458 0 1 0 6.616186128959992 6.446001756769327 131.97953139242566 1 0 1
7457 0 1 0 5.899383658574656 5.182215134581546 132.1018469762747 1 0 1
7469 0 1 0 8.072120209895706 6.506579628517987 131.98804584488107 1 0 1
7460 0 1 0 6.622949446883789 8.928233539082498 132.09958390301858 1 0 1
7470 0 1 0 8.788700511984144 7.710188045441699 131.98247117140494 1 0 1
6779 0 1 0 1.561076316261546 7.706720173897156 132.09531808954156 1 0 1
7502 0 1 0 4.454304447721946 10.18341584295038 132.15552116430848 1 0 1
6770 0 1 0 0.12253773232918018 7.714542491494342 132.03641828849408 1 0 1
7523 0 1 0 8.012742491057473 11.386988184574294 132.05270446924686 1 0 1
6831 0 1 0 1.5858290487837732 10.214037255688618 132.09770992902523 1 0 1
7526 0 1 0 8.810914681975866 15.17884929259507 132.0216119232298 1 0 1
7524 0 1 0 8.79046011247673 12.590386600200443 132.01045027457408 1 0 1
7512 0 1 0 6.617417280725847 11.363469268487249 132.09858733725665 1 0 1
7511 0 1 0 5.895236906614507 10.13775693061048 132.09697652790354 1 0 1
7513 0 1 0 5.877200655642804 12.644059389347744 131.94464270520322 1 0 1
7504 0 1 0 4.447296938377179 12.595239968374482 131.9968433251881 1 0 1
6833 0 1 0 1.6155000270911686 12.673590756573487 132.0599900308132 1 0 1
6721 0 1 0 3.725057152196165 8.955242222036675 132.11783123631642 1 0 1
6785 0 1 0 3.7137168770639177 13.814000652036349 131.9144794023998 1 0 1
6783 0 1 0 3.6991195159609003 11.404542029512115 132.05717327800278 1 0 1
6834 0 1 0 2.305319761575434 13.890047864225913 131.9760230193865 1 0 1
6832 0 1 0 2.3264403755730885 11.406614500715907 132.02914901628768 1 0 1
6822 0 1 0 0.17048647300700043 10.16710552266406 131.98535114087747 1 0 1
6780 0 1 0 2.257895005490769 8.953080552936576 132.0954536512879 1 0 1
7506 0 1 0 4.495925624719181 15.048565137874077 131.97012587420707 1 0 1
7515 0 1 0 5.8819894036901195 15.124238965735428 131.84372110479478 1 0 1
6787 0 1 0 3.7505814435423526 16.30615685589744 132.03327119065497 1 0 1
6835 0 1 0 1.5574055783873553 15.112327936279883 132.03620422648063 1 0 1
7516 0 1 0 6.620539565621936 16.333029121387646 131.92721064964775 1 0 1
7527 0 1 0 8.076433654269273 16.369369141720078 131.92349911982208 1 0 1
6826 0 1 0 0.13374325462820127 15.114144714145349 132.1137214434774 1 0 1
7517 0 1 0 5.920014629891976 17.547285650223618 132.04471676144277 1 0 1
7528 0 1 0 8.76664178850319 17.62708932001171 132.06086983328848 1 0 1
7508 0 1 0 4.495338045875845 17.559569238084958 132.16062136005866 1 0 1
6836 0 1 0 2.3495262881949532 16.306964210102148 132.1131140904856 1 0 1
6837 0 1 0 1.6149870941374063 17.552159916055555 132.18434587191402 1 0 1
6828 0 1 0 0.14781274152916346 17.52667998377465 132.25442465334572 1 0 1
7530 0 1 0 8.712940660706506 20.08374616127939 132.02719452274042 1 0 1
7529 0 1 0 8.04434731022442 18.856693907084626 132.13445012356237 1 0 1
7518 0 1 0 6.623230293012559 18.772417965471124 132.17750379940554 1 0 1
7521 0 1 0 7.993962366777491 21.277667256754672 132.1903338498518 1 0 1
6843 0 1 0 3.702604952407522 23.66381716998651 132.7077974763303 1 0 1
6882 0 1 0 0.1330133175633103 22.418274523437773 133.01282431025277 1 0 1
6830 0 1 0 0.1771032659081568 19.977601671846006 132.71379542733195 1 0 1
7564 0 1 0 4.408450122058558 24.887967924360787 132.73961432826889 1 0 1
6895 0 1 0 1.6201221340494445 27.3942330955509 133.16795669249498 1 0 1
7566 0 1 0 4.468981129770192 27.384689721174343 132.98318191478268 1 0 1
6886 0 1 0 0.2006011862585238 27.386275739416682 133.23404004994396 1 0 1
6894 0 1 0 2.3247313606437032 26.127363173264403 133.15049371173018 1 0 1
6892 0 1 0 2.299626459191818 23.626177163711063 132.8186204102676 1 0 1
6884 0 1 0 0.22392975418466285 24.89659162715395 133.25628044922718 1 0 1
6893 0 1 0 1.598273153843508 24.92004879330362 133.08498824055005 1 0 1
7585 0 1 0 8.002575538631202 26.130241361939532 132.90319061710858 1 0 1
7574 0 1 0 6.54263438240478 26.15498639675077 132.90632649627054 1 0 1
7575 0 1 0 5.924605634555121 27.375976058024925 132.94318563524385 1 0 1
7584 0 1 0 8.698446093176148 24.94442534782281 132.68955891603105 1 0 1
7586 0 1 0 8.719875749910555 27.367301893770485 132.95302365839044 1 0 1
6845 0 1 0 3.7341602700599332 26.147024380563227 132.9187483271042 1 0 1
6849 0 1 0 3.7491480359675586 31.088668499599425 132.99744167450345 1 0 1
6898 0 1 0 2.308185551028092 31.107519951247856 132.87264965744504 1 0 1
7568 0 1 0 4.432007119807274 29.85041383563749 133.0181810320686 1 0 1
6847 0 1 0 3.75307370120287 28.599613106719023 133.05166715258656 1 0 1
6896 0 1 0 2.332367614804741 28.569116391573324 133.07587265457735 1 0 1
7570 0 1 0 4.440897031679826 32.32056156726481 132.9701518461869 1 0 1
6888 0 1 0 0.1690593997919533 29.865557556113828 133.02086042245207 1 0 1
6897 0 1 0 1.6188784210000198 29.857156674674986 132.968344571283 1 0 1
6890 0 1 0 0.18708052635386818 32.334815480097 132.81283384738225 1 0 1
6899 0 1 0 1.6226351245396031 32.30310030012055 132.75328294072668 1 0 1
7589 0 1 0 8.04413463830394 31.121898550088588 132.935833063336 1 0 1
7590 0 1 0 8.757012167916182 32.3574843110754 132.74844722162393 1 0 1
7587 0 1 0 8.022639738966474 28.656943330666188 132.97643150732122 1 0 1
7588 0 1 0 8.740641110041397 29.90003862018481 132.88096560229465 1 0 1
7576 0 1 0 6.589900044306157 28.63484080845621 133.02741307654895 1 0 1
7578 0 1 0 6.620787651525993 31.1270819035125 133.02911164200353 1 0 1
7577 0 1 0 5.917072487762802 29.867097588959233 133.09208761322526 1 0 1
7579 0 1 0 5.896757047855012 32.35430225796652 132.95843191898805 1 0 1
6951 0 1 0 1.637071531779113 34.83291244879843 132.64701424110933 1 0 1
6900 0 1 0 2.3545059453466486 33.57350632746669 132.77638627108755 1 0 1
6942 0 1 0 0.19037161348184836 34.796191902148635 132.6556299571855 1 0 1
6841 0 1 0 3.7518026428348548 33.5999303392585 132.82499067083216 1 0 1
7622 0 1 0 4.458003576530736 34.83908102524277 132.84308210441029 1 0 1
6903 0 1 0 3.7489472076036536 35.997975913670366 132.79404097747857 1 0 1
6952 0 1 0 2.3230572035724504 36.05251211427781 132.7008755708097 1 0 1
7631 0 1 0 5.867062270251535 34.8559856393309 132.77550242659836 1 0 1
7642 0 1 0 8.735382822674708 34.80992494704538 132.6129445373827 1 0 1
7643 0 1 0 8.01615162665724 36.056096788656724 132.55054612917795 1 0 1
7632 0 1 0 6.568786400634227 36.079331756741624 132.56837564463999 1 0 1
7581 0 1 0 8.046914622258024 33.574519126498906 132.74098647395348 1 0 1
7580 0 1 0 6.598401670671601 33.543667365094734 132.80354581900065 1 0 1
7573 0 1 0 5.800530463654135 24.906181392969373 132.72849808358131 1 0 1
6838 0 1 0 2.3277624445339873 18.77028151705157 132.37282815603356 1 0 1
6839 0 1 0 1.5660394919062113 20.005645350111358 132.50169359388124 1 0 1
7572 0 1 0 6.5605129294932665 23.733651158862155 132.6176491932045 1 0 1
6840 0 1 0 2.2161947801063038 21.199947097326802 132.5161534487793 1 0 1
6891 0 1 0 1.589529523370838 22.443763868783922 132.78016994604798 1 0 1
7562 0 1 0 4.39764053838997 22.41592843076575 132.6058933632596 1 0 1
6781 0 1 0 3.689884121666895 21.164370948874932 132.4598007979352 1 0 1
7571 0 1 0 5.859755675738386 22.4339830381113 132.51658388651464 1 0 1
7520 0 1 0 6.5746797836340765 21.23028089267038 132.30794970045045 1 0 1
7583 0 1 0 8.00010178176052 23.720238687348814 132.53512551618354 1 0 1
6789 0 1 0 3.7346972121542565 18.7449451713626 132.3030546006671 1 0 1
7582 0 1 0 8.69806541870594 22.491474390929564 132.3407677845756 1 0 1
7519 0 1 0 5.890684360797151 19.995152902588245 132.32924884147948 1 0 1
7510 0 1 0 4.406834948320369 19.987812885330356 132.36780049305807 1 0 1
7017 0 1 0 1.603941521179659 54.56686471060267 131.67675340440042 1 0 1
7696 0 1 0 6.595184597046814 53.37543770799291 131.91111879475685 1 0 1
7695 0 1 0 5.891071190693547 52.10785418914361 131.93165615060965 1 0 1
7684 0 1 0 4.434932216090412 49.633157853024436 132.0956770747728 1 0 1
7692 0 1 0 6.561870429239098 48.415481111415225 132.17303643555772 1 0 1
7693 0 1 0 5.848010456668931 49.64748063256027 132.1418617879064 1 0 1
7697 0 1 0 5.8848995145189775 54.61264875823739 131.83551986473853 1 0 1
7688 0 1 0 4.474694756293544 54.56599993438465 131.8122161790529 1 0 1
7016 0 1 0 2.3249751375934093 53.33025197829286 131.74531545490055 1 0 1
6967 0 1 0 3.724538223196709 53.330206749708715 131.81227165155968 1 0 1
7686 0 1 0 4.501914092772211 52.08813265262641 131.87971780916345 1 0 1
7015 0 1 0 1.5935972781298071 52.10679504113762 131.78460129796508 1 0 1
7008 0 1 0 0.2067198563508006 54.55520453938104 131.67904129367042 1 0 1
7014 0 1 0 2.306814024187831 50.87916664417141 131.93925721766286 1 0 1
6965 0 1 0 3.7234061455084397 50.85377850350708 131.9989164468871 1 0 1
7006 0 1 0 0.1832230148933888 52.1306870860444 131.56006133083983 1 0 1
7013 0 1 0 1.515424035599403 49.61381794895489 132.0757676365015 1 0 1
7694 0 1 0 6.573600492640339 50.906857332302266 132.1142451885625 1 0 1
6950 0 1 0 0.1490728717523808 44.712959945168016 132.17846467967993 1 0 1
7004 0 1 0 0.1249159734603105 49.66906152288618 131.9132766298483 1 0 1
7002 0 1 0 0.13087871238742607 47.165099115500404 132.07295659137242 1 0 1
7707 0 1 0 8.019679737966618 53.37240006060836 132.1121914443864 1 0 1
6956 0 1 0 2.3037292954630564 41.02124827442544 132.5770435374942 1 0 1
6946 0 1 0 0.19104737676072184 39.79347470131323 132.41286002559949 1 0 1
6955 0 1 0 1.5511112933034794 39.78569432085521 132.567252177635 1 0 1
6907 0 1 0 3.7342247080233517 41.00434963704737 132.61575590012728 1 0 1
6905 0 1 0 3.7234974128824203 38.49451766947602 132.66970124154352 1 0 1
7626 0 1 0 4.4692673542347725 39.72726990594828 132.6795762547422 1 0 1
6954 0 1 0 2.288736738995202 38.55237302348809 132.52463773623316 1 0 1
6944 0 1 0 0.15823559892556316 37.290094737732055 132.60038918144437 1 0 1
6953 0 1 0 1.5930020068421031 37.26594026062668 132.569424485779 1 0 1
7624 0 1 0 4.419622713739655 37.25331770878241 132.65304655583793 1 0 1
7635 0 1 0 5.909342166890907 39.75192777625379 132.6548580744077 1 0 1
7634 0 1 0 6.585596381387121 38.50933013431816 132.6063214360538 1 0 1
7644 0 1 0 8.724277008434802 37.294752267568775 132.5132721641677 1 0 1
7645 0 1 0 8.014631722344275 38.55574155355455 132.47856541874157 1 0 1
7636 0 1 0 6.576427064079206 40.96783209940624 132.63695731213895 1 0 1
7647 0 1 0 8.016450093339381 41.02198290910391 132.61216399631488 1 0 1
7646 0 1 0 8.769522722999584 39.79517655267967 132.54978523629694 1 0 1
7633 0 1 0 5.846986725324543 37.281326309298294 132.54117128136838 1 0 1
7630 0 1 0 4.495077433608778 44.72008218874623 132.22292916048514 1 0 1
6901 0 1 0 3.7466458927159763 45.942483676845065 132.26151285944357 1 0 1
7639 0 1 0 5.916361808292385 44.71064589432501 132.29068949822468 1 0 1
6909 0 1 0 3.764555537128809 43.496733432273444 132.44073633432367 1 0 1
7628 0 1 0 4.48281434430668 42.26453144724287 132.53181297819452 1 0 1
7641 0 1 0 7.979404240816876 45.946539181321455 132.35504432767812 1 0 1
6957 0 1 0 1.6178145261801247 42.2637918852261 132.3811052162238 1 0 1
7691 0 1 0 5.848631069766463 47.16910776408379 132.2248875980362 1 0 1
7702 0 1 0 8.681185851505536 47.217959004292744 132.23552442835106 1 0 1
7640 0 1 0 6.5811449329424105 45.954651671704816 132.25936497719377 1 0 1
7637 0 1 0 5.905870059711568 42.26176417394267 132.54038928425229 1 0 1
7648 0 1 0 8.73400200450436 42.24464397691071 132.61399094791585 1 0 1
7638 0 1 0 6.640001138588766 43.44857184930034 132.46956570804505 1 0 1
7649 0 1 0 8.070690034529713 43.4760692529708 132.5745284667172 1 0 1
7650 0 1 0 8.750187801859893 44.727253608041664 132.50916933188216 1 0 1
6958 0 1 0 2.318236853104709 43.56807242988746 132.40585008413885 1 0 1
6948 0 1 0 0.19145881236932794 42.27952053613358 132.23257637396816 1 0 1
7682 0 1 0 4.409618037138857 47.18561573626559 132.23271126691552 1 0 1
6963 0 1 0 3.6934704214668237 48.41856960969008 132.21834903826692 1 0 1
7708 0 1 0 8.733131924754787 54.59532663810752 132.2775960113879 1 0 1
6959 0 1 0 1.6044632493953555 44.710848469416376 132.24308319353653 1 0 1
6960 0 1 0 2.2812508434204815 45.91041940716343 132.28229403493089 1 0 1
7706 0 1 0 8.699569876694726 52.120125026946056 132.21102062487367 1 0 1
7703 0 1 0 7.978418759914051 48.46402089636281 132.28684825493033 1 0 1
7704 0 1 0 8.7406203252993 49.66366593950317 132.19861852922142 1 0 1
7012 0 1 0 2.265546459522995 48.4071290134457 132.24889352106425 1 0 1
7011 0 1 0 1.5262472218937893 47.19095313724911 132.26660457512673 1 0 1
7705 0 1 0 7.977866577578798 50.87811129572345 132.19715659688092 1 0 1
7742 0 1 0 4.500551925899561 59.535003455636456 131.88801372947984 1 0 1
6961 0 1 0 3.757659981062935 58.321797890583696 131.907166062939 1 0 1
7020 0 1 0 2.353598173236519 58.2677678488539 131.78541545410164 1 0 1
7019 0 1 0 1.6327250030532625 57.07240847814111 131.6494445908197 1 0 1
7071 0 1 0 1.64109197906445 59.52894250903543 131.7974220685022 1 0 1
7062 0 1 0 0.22759366870648337 59.50809015722084 131.615053964155 1 0 1
7010 0 1 0 0.19710437542578935 57.04814528849727 131.66959788036078 1 0 1
7690 0 1 0 4.456003430545847 57.057803337464534 131.82351053305177 1 0 1
7018 0 1 0 2.3360625002419364 55.7943158433729 131.77584555982844 1 0 1
7823 0 1 0 8.066989558667755 73.1606473868054 131.41123885851553 1 0 1
7751 0 1 0 5.929278023693013 59.495345807896875 132.03961793581604 1 0 1
7812 0 1 0 6.616315732485097 73.22500814322024 131.43885781314683 1 0 1
7709 0 1 0 8.021794718841452 55.85165263713474 132.15000252026985 1 0 1
6969 0 1 0 3.708845321702793 55.83942551230389 131.82255812828035 1 0 1
7760 0 1 0 6.629847920529059 70.66450957657459 131.4846565268091 1 0 1
7770 0 1 0 8.759877450157127 69.42731863283363 131.5448665890943 1 0 1
7811 0 1 0 5.93481648151772 71.93701605070794 131.37262488020957 1 0 1
7746 0 1 0 4.455777579745332 64.49437950942392 131.77667565651066 1 0 1
7744 0 1 0 4.452832167621091 61.970573566572234 131.80634784939392 1 0 1
7023 0 1 0 3.747971965370436 60.75028402169374 131.7969197260479 1 0 1
7074 0 1 0 2.3860680654319637 63.2454083101512 131.38415283101153 1 0 1
7072 0 1 0 2.3206692412061245 60.77884989143229 131.66329502128673 1 0 1
7073 0 1 0 1.677604556081923 62.00947206397753 131.4253667932899 1 0 1
7064 0 1 0 0.19395729563983807 61.98359941985309 131.4885272107282 1 0 1
7075 0 1 0 1.6499267587604718 64.46948258009763 131.2428077056473 1 0 1
7025 0 1 0 3.770900279519561 63.21677056325923 131.6783205044392 1 0 1
7066 0 1 0 0.25286525247940617 64.4560697991838 131.30181127965383 1 0 1
7701 0 1 0 8.043396249668325 58.245951849008776 132.17684067315403 1 0 1
7766 0 1 0 8.733906032574703 64.50987415140413 132.05192353431073 1 0 1
7699 0 1 0 5.911553668996105 57.033502047105564 131.88171464219792 1 0 1
7753 0 1 0 5.906430373401771 61.95743295014793 131.91959541286514 1 0 1
7754 0 1 0 6.628730013060337 63.199029893870254 132.0330814437707 1 0 1
7755 0 1 0 5.872310390723382 64.47405850498096 131.91253325898745 1 0 1
7765 0 1 0 8.050750893872848 63.25221518147652 132.13972156815248 1 0 1
7700 0 1 0 6.624096314128543 58.27620264016872 132.0837848902173 1 0 1
7076 0 1 0 2.3713135284042437 65.72062600835906 131.26353590009865 1 0 1
7027 0 1 0 3.7800470487954043 65.69170690877682 131.59809097230996 1 0 1
7748 0 1 0 4.503019527971663 66.95086426246966 131.5409149237376 1 0 1
7029 0 1 0 3.793201009058149 68.17381398035022 131.4066888641527 1 0 1
7077 0 1 0 1.6934232794902748 66.95169697261522 131.1970592076916 1 0 1
7078 0 1 0 2.3790388159182028 68.17029522300567 131.25229813429428 1 0 1
7068 0 1 0 0.18868336521932996 66.98729590667398 131.25639954512616 1 0 1
7750 0 1 0 4.514665408527525 69.4841083229985 131.3924124396063 1 0 1
7079 0 1 0 1.6686840127871336 69.37417080217841 131.20548326489538 1 0 1
7070 0 1 0 0.20846081325423493 69.40748687696869 131.14088735305023 1 0 1
7758 0 1 0 6.627046353004531 68.22169353460842 131.64667069739022 1 0 1
7767 0 1 0 8.02999547836769 65.78583108132962 131.78651985483066 1 0 1
7769 0 1 0 8.093187441848416 68.22701732602827 131.6556780069722 1 0 1
7768 0 1 0 8.781177866440418 66.97430597135325 131.66695473252835 1 0 1
7757 0 1 0 5.941484745945426 66.98006099018924 131.666816198602 1 0 1
7756 0 1 0 6.62133357362505 65.7208635650514 131.78266317213797 1 0 1
7759 0 1 0 5.886872030055534 69.4483765907613 131.51984689213333 1 0 1
7802 0 1 0 4.523926420251476 71.92074964821285 131.28828752906276 1 0 1
7132 0 1 0 2.356244052683916 73.15787150912477 131.1865420508119 1 0 1
7122 0 1 0 0.2279851803065426 71.93783801072007 131.19120679878304 1 0 1
7083 0 1 0 3.786336392229152 73.17590362563334 131.2250164853639 1 0 1
7131 0 1 0 1.6411447211917913 71.87868633921578 131.1443864242105 1 0 1
7021 0 1 0 3.8211640382841177 70.69780128145185 131.2719613368626 1 0 1
7080 0 1 0 2.384459350278279 70.63043394063497 131.15569071261086 1 0 1
7822 0 1 0 8.779817791642971 71.94307013436256 131.3979718262763 1 0 1
7761 0 1 0 8.081656761003268 70.68230295871345 131.48248860295632 1 0 1
7698 0 1 0 6.646579865155406 55.82222619961961 131.92246136134077 1 0 1
7764 0 1 0 8.756481325107172 61.9947117151509 132.15921861575848 1 0 1
7762 0 1 0 8.75489347727646 59.54889727443177 132.14351829731498 1 0 1
7752 0 1 0 6.66278695507519 60.74907505406552 132.04839552333763 1 0 1
7710 0 1 0 8.72672812159346 57.050350624808964 132.20328026227503 1 0 1
7763 0 1 0 8.04348144611495 60.78417787567942 132.25814249159458 1 0 1
7087 0 1 0 3.756833524767861 78.12348004298191 131.31847695275223 1 0 1
7136 0 1 0 2.312238256344612 78.0865186255269 131.2550720178892 1 0 1
7085 0 1 0 3.757338232583462 75.62514990505646 131.3484621089878 1 0 1
7806 0 1 0 4.472586732224775 76.88056601571708 131.2998202745016 1 0 1
7804 0 1 0 4.463636729536229 74.37961394077865 131.21757450007973 1 0 1
7134 0 1 0 2.3522302282898244 75.62897848090458 131.35447783372186 1 0 1
7133 0 1 0 1.6046154582399355 74.39684273620617 131.27471723615042 1 0 1
7135 0 1 0 1.6200489912382106 76.84614014786878 131.34592411336206 1 0 1
7126 0 1 0 0.18275622601026548 76.88554995550531 131.3117933605405 1 0 1
7124 0 1 0 0.22010119227074795 74.4219855605855 131.29201440073157 1 0 1
7825 0 1 0 8.00759962583664 75.62952474616952 131.42897636124374 1 0 1
7826 0 1 0 8.757163536586544 76.8201121300303 131.36398927358397 1 0 1
7814 0 1 0 6.5970324398687925 75.64495063675925 131.41432533758672 1 0 1
7827 0 1 0 8.042101368900921 78.12089661409404 131.1906486114996 1 0 1
7813 0 1 0 5.891997033383155 74.41277609943683 131.31411587702019 1 0 1
7816 0 1 0 6.623029235553322 78.14208327794378 131.28916562151053 1 0 1
7815 0 1 0 5.880276302601103 76.87090304589914 131.2760270356721 1 0 1
7824 0 1 0 8.729749662572283 74.38138187514205 131.43620473491706 1 0 1
7808 0 1 0 4.489166243606138 79.38945518755777 131.2822401827071 1 0 1
7138 0 1 0 2.3488542356491995 80.5291451425528 130.98539702176143 1 0 1
7139 0 1 0 1.569396348922582 81.77026872663079 130.88103352866543 1 0 1
7137 0 1 0 1.6265311164438214 79.26263145430919 131.10849832391915 1 0 1
7089 0 1 0 3.760925236509483 80.59825991564796 131.13375843944968 1 0 1
7810 0 1 0 4.480323939560206 81.81700141903379 130.9413627344317 1 0 1
7140 0 1 0 2.2722170688839887 82.98817842965092 130.75059828320917 1 0 1
7081 0 1 0 3.710607796308118 83.04658033153866 130.81342679103565 1 0 1
7128 0 1 0 0.15134420989480465 79.30671876101003 131.10698725082054 1 0 1
7130 0 1 0 0.1243452180395938 81.76626384741824 130.8547301079424 1 0 1
7817 0 1 0 5.906091590000828 79.40043840038979 131.22378001814423 1 0 1
7819 0 1 0 5.911100888147154 81.81949713357854 131.04171072955137 1 0 1
7829 0 1 0 8.060565438231132 80.55458316674189 131.05077710837492 1 0 1
7830 0 1 0 8.792424413723214 81.77795398163057 131.06378617393943 1 0 1
7818 0 1 0 6.663763360742071 80.58118559730784 131.0835728122392 1 0 1
7828 0 1 0 8.777586539775522 79.31661835749594 131.05471050190224 1 0 1
7821 0 1 0 7.996523077703898 83.01087834602485 131.03442127494196 1 0 1
7820 0 1 0 6.589365871511646 83.09801791964551 131.00904585022195 1 0 1
7184 0 1 0 0.1883810767434131 86.67587776772837 130.45867051373264 1 0 1
7864 0 1 0 4.4771510730269455 86.74851560804895 130.51884011512686 1 0 1
7193 0 1 0 1.6024015585205582 86.71876800503557 130.40754643555968 1 0 1
7191 0 1 0 1.6051264572623345 84.25032363726459 130.59808190474942 1 0 1
7143 0 1 0 3.72519104474655 85.51138740848124 130.5307749913868 1 0 1
7192 0 1 0 2.3102649533691584 85.50425571349122 130.47716346143545 1 0 1
7862 0 1 0 4.446290398360215 84.28522110932767 130.78344518325866 1 0 1
7182 0 1 0 0.18148109103459684 84.22448392385056 130.61584486165196 1 0 1
7194 0 1 0 2.3561380889411305 87.9481667192338 130.28201936354853 1 0 1
7145 0 1 0 3.758364438324162 87.96855082564274 130.45048632593404 1 0 1
7871 0 1 0 5.869081442802584 84.30362607097527 130.96227677537635 1 0 1
7883 0 1 0 8.021816688459813 85.53897921448333 130.73744534480593 1 0 1
7882 0 1 0 8.737489974468899 84.28274178783164 130.85376376768212 1 0 1
7873 0 1 0 5.882657794492124 86.77183999898533 130.62837612817899 1 0 1
7884 0 1 0 8.740143462888001 86.76175719145033 130.6396761473661 1 0 1
7872 0 1 0 6.603977402945229 85.52174511121504 130.79461958083658 1 0 1
7885 0 1 0 8.056376360384412 87.97181129854856 130.5725949358244 1 0 1
7874 0 1 0 6.651422722549099 88.0144454982366 130.59087544215961 1 0 1
7188 0 1 0 0.20555832634540921 91.6641700115378 130.58840019266256 1 0 1
7866 0 1 0 4.440015531871025 89.19947482393182 130.46921355423913 1 0 1
7195 0 1 0 1.6187106573796537 89.14644299454447 130.39909844738227 1 0 1
7147 0 1 0 3.739856095743697 90.42801862639682 130.6137041680873 1 0 1
7197 0 1 0 1.5990342827835604 91.70327566639149 130.61272368548268 1 0 1
7196 0 1 0 2.335736049978269 90.42694940793436 130.4887081783822 1 0 1
7868 0 1 0 4.499748900189912 91.64745347903269 130.73088896862134 1 0 1
7186 0 1 0 0.21507931179775858 89.15378010487542 130.4275850760504 1 0 1
7888 0 1 0 8.784567635197826 91.68317645845707 130.6368119727479 1 0 1
7887 0 1 0 8.054048449788723 90.45814106118443 130.5830244947308 1 0 1
7876 0 1 0 6.599152641571751 90.43672729270114 130.54230042182135 1 0 1
7875 0 1 0 5.899882319850896 89.21266284726437 130.541399402573 1 0 1
7886 0 1 0 8.73652598677053 89.22751152204555 130.59511596619458 1 0 1
7877 0 1 0 5.891422893555222 91.63754444673779 130.70017264755091 1 0 1
6531 0 1 0 1.6419672112147876 96.65108643991546 130.96308963549208 1 -1 1
7199 0 1 0 1.5779162677484198 94.13817602876115 130.92575352159034 1 0 1
7198 0 1 0 2.307806664650062 92.93198356426737 130.7889436417595 1 0 1
7200 0 1 0 2.340667756277005 95.35172484596987 130.94959902969765 1 0 1
7149 0 1 0 3.7450335435594044 92.89198498445863 130.87427707267193 1 0 1
7870 0 1 0 4.475224453866711 94.1218573206403 130.9697884087895 1 0 1
7141 0 1 0 3.7680651197501334 95.34980345375256 130.95957087010075 1 0 1
7202 0 1 0 4.458818471177105 96.59017039437715 130.84927757999688 1 -1 1
7190 0 1 0 0.14225707332965135 94.16318655311115 130.91687739164658 1 0 1
6522 0 1 0 0.21306234749127423 96.6109539601743 131.00945574413396 1 -1 1
7889 0 1 0 8.071334750178853 92.92594356249617 130.6810956772754 1 0 1
7880 0 1 0 6.615177521631243 95.341082391136 130.8011538838529 1 0 1
7211 0 1 0 5.880546080237267 96.56593097460801 130.70477969864774 1 -1 1
7878 0 1 0 6.648059852170587 92.8713709550033 130.75235394635754 1 0 1
7879 0 1 0 5.897564168867855 94.13825398603078 130.84202617390557 1 0 1
7881 0 1 0 8.014125931331522 95.33189420859442 130.74352436537686 1 0 1
7890 0 1 0 8.779349500416798 94.13296800415858 130.7946272140104 1 0 1
7222 0 1 0 8.744590507730328 96.56023839718118 130.65426839460548 1 -1 1
7204 0 1 0 4.488105853581191 99.04638819369147 130.6087016618771 1 -1 1
6532 0 1 0 2.3160101648444997 97.89208072286942 130.88349326559714 1 -1 1
6534 0 1 0 2.303590072166024 100.33361883745997 130.732410230799 1 -1 1
6485 0 1 0 3.7856239228371993 100.28595664814772 130.60924744507057 1 -1 1
6533 0 1 0 1.5980809207016806 99.10490836017529 130.80272751608317 1 -1 1
6483 0 1 0 3.723762358004604 97.80547549347341 130.74046824553955 1 -1 1
7206 0 1 0 4.458135461618166 101.50724083273104 130.6279477975158 1 -1 1
6535 0 1 0 1.598412705972274 101.55831674269552 130.67626484013726 1 -1 1
6526 0 1 0 0.14983182630766964 101.52669136599032 130.60838679252223 1 -1 1
6524 0 1 0 0.20458971281601213 99.07856700938797 130.79069670615638 1 -1 1
7225 0 1 0 8.067553125568939 100.26458515637533 130.52095191633376 1 -1 1
7214 0 1 0 6.652669005529401 100.28752441379005 130.48899586424037 1 -1 1
7212 0 1 0 6.63098370274985 97.81493172644925 130.688395915141 1 -1 1
7213 0 1 0 5.9212293530315785 99.07039560878871 130.59834222739246 1 -1 1
7224 0 1 0 8.776259082237276 99.07019900436393 130.59683971846593 1 -1 1
7223 0 1 0 8.067788300357929 97.84900678618052 130.60191314858682 1 -1 1
7215 0 1 0 5.920809083922922 101.55709037902635 130.58335166111405 1 -1 1
7226 0 1 0 8.759663746930299 101.52906371489587 130.50919299168436 1 -1 1
6528 0 1 0 0.2204692873351036 104.04662529601596 130.56355567073152 1 -1 1
6536 0 1 0 2.2941647339209905 102.75662253850501 130.48806881482662 1 -1 1
6487 0 1 0 3.7324070585106877 102.78634858216523 130.5981913294287 1 -1 1
7208 0 1 0 4.459525279479564 104.02735196917838 130.61693247528643 1 -1 1
6537 0 1 0 1.6408856169008013 104.00140561647392 130.50141781176265 1 -1 1
6538 0 1 0 2.377469767811108 105.26436982645039 130.57810046412285 1 -1 1
6489 0 1 0 3.8044399450069055 105.25314825135438 130.7084249102759 1 -1 1
7227 0 1 0 8.085119798037672 102.78879553646138 130.5375714048505 1 -1 1
7218 0 1 0 6.676649611757372 105.24296223193787 130.6807613171969 1 -1 1
7229 0 1 0 8.082365829142521 105.23813798331169 130.74727704433957 1 -1 1
7216 0 1 0 6.639187589723384 102.76146220694906 130.58392472974117 1 -1 1
7217 0 1 0 5.930399747030926 104.02868718739528 130.61058760193632 1 -1 1
7228 0 1 0 8.77612202925624 103.96291901971603 130.6504198294521 1 -1 1
7262 0 1 0 4.5223764639792465 108.97892527327852 130.8384430881515 1 -1 1
7210 0 1 0 4.526964817886623 106.48538287062357 130.70959911007049 1 -1 1
6591 0 1 0 1.6550409355768894 108.96611116799272 130.8289056399741 1 -1 1
6540 0 1 0 2.387767693194318 107.7359834673391 130.87750792568565 1 -1 1
6539 0 1 0 1.6760259761767047 106.5131642399888 130.6995889810171 1 -1 1
6592 0 1 0 2.437364701266752 110.20830839411879 130.91169607498347 1 -1 1
6543 0 1 0 3.808222574546335 110.21582598847073 130.90388670985982 1 -1 1
6481 0 1 0 3.803678034693871 107.74525161647196 130.76185429034612 1 -1 1
6582 0 1 0 0.23955366771021996 108.97761870877305 130.68765759908942 1 -1 1
6530 0 1 0 0.21581771204397046 106.52428567222907 130.66309388546566 1 -1 1
7219 0 1 0 5.9576839042569425 106.4614238392162 130.72727631282362 1 -1 1
7220 0 1 0 6.632553054594172 107.71801175683703 130.87326276218258 1 -1 1
7272 0 1 0 6.660996422484371 110.20932916605678 130.87371399377284 1 -1 1
7271 0 1 0 5.938310199537533 108.95257760975385 130.82893740311096 1 -1 1
7283 0 1 0 8.106169562267004 110.21618471253417 130.92009429335405 1 -1 1
7230 0 1 0 8.817890711524647 106.497940531101 130.84901750257575 1 -1 1
7221 0 1 0 8.075973449609696 107.71263416244109 130.89456948709872 1 -1 1
7282 0 1 0 8.791799479344926 108.96646950417039 130.89734905196752 1 -1 1
6545 0 1 0 3.83432463442491 112.6737439581106 130.91057094969008 1 -1 1
6594 0 1 0 2.3802480839882914 112.69372822262977 130.76711455320094 1 -1 1
7264 0 1 0 4.541890959959409 111.45783138862811 130.93819419088857 1 -1 1
7266 0 1 0 4.524235231146001 113.92729379944451 131.0009845955892 1 -1 1
6593 0 1 0 1.7089341378769662 111.4338169753588 130.7598585546175 1 -1 1