9540
Lattice="154.00799999999998 0.0 0.0 0.0 148.2 0.0 0.0 0.0 151.07609208607428" Properties=species:S:1:pos:R:3:masses:R:1:momenta:R:3:id:I:1:type:I:1:mol-id:I:1:initial_charges:R:1:mmcharges:R:1 comment="LAMMPS data file via write_data, version 4 Feb 2025, timestep = 320000, units = metal" pbc="T T T"
C      -34.86351669      67.96560674       2.29315746      12.01100000      -1.16216235      -0.67252330      -0.51826858        1        1        0       0.00000000       0.00000000
C      -47.02134957      56.89042031       2.42020173      12.01100000       0.03316225       0.38886291       0.54637169        2        1        0       0.00000000       0.00000000
C      -34.92018576      58.08760614       1.74177950      12.01100000       0.25691844      -0.06468906       0.18245627        3        1        0       0.00000000       0.00000000
C      -46.98198365      59.30262932       2.59638147      12.01100000      -0.13570443      -0.56354183       0.30142058        4        1        0       0.00000000       0.00000000
C      -34.90734288      60.51333863       1.98521674      12.01100000       0.54804098       0.74391316       0.74382046        5        1        0       0.00000000       0.00000000
C      -46.97475524      61.74679382       2.70070494      12.01100000       0.55070789       0.33645382       0.63130196        6        1        0       0.00000000       0.00000000
C      -34.85130128      63.00714423       2.13197376      12.01100000       0.01475299      -0.79243678      -0.16364515        7        1        0       0.00000000       0.00000000
C      -47.00560082      64.25651393       2.73211296      12.01100000       0.52805495      -0.26786437      -0.07288085        8        1        0       0.00000000       0.00000000
C      -34.82169099      65.53261344       2.28638998      12.01100000      -0.09837380      -0.21605819      -0.55853549        9        1        0       0.00000000       0.00000000
C      -46.99316514      66.76354976       2.64428280      12.01100000       0.12000977      -0.04629472       0.83329848       10        1        0       0.00000000       0.00000000
C      -45.59883672      56.89109086       2.32325244      12.01100000      -0.84504870      -1.87375438      -0.00377131       11        1        0       0.00000000       0.00000000
C      -44.86264450      58.10244526       2.60028661      12.01100000       0.64533532       0.23801091      -0.45324061       12        1        0       0.00000000       0.00000000
C      -45.56004817      59.30159333       2.74657831      12.01100000       1.01297467       0.74335805       0.86330192       13        1        0       0.00000000       0.00000000
C      -44.82546941      60.54017855       2.80644624      12.01100000       0.12284410       0.35944299      -0.20946526       14        1        0       0.00000000       0.00000000
C      -45.54565744      61.79968555       2.70429227      12.01100000      -0.02914180      -0.10403601      -0.29980992       15        1        0       0.00000000       0.00000000
C      -44.79204136      63.02545675       2.79374634      12.01100000       0.11287638       0.67885128       0.06407256       16        1        0       0.00000000       0.00000000
C      -45.53677600      64.23555938       2.81628284      12.01100000       0.43702377       0.31637901       0.26524633       17        1        0       0.00000000       0.00000000
C      -44.86308020      65.48357825       2.77684302      12.01100000      -0.63596713       0.29973207       0.47837239       18        1        0       0.00000000       0.00000000
C      -45.60862791      66.71162720       2.75094094      12.01100000      -0.87067568      -0.92733829      -0.19967612       19        1        0       0.00000000       0.00000000
C      -44.88480702      67.97970990       2.76452494      12.01100000      -0.29168062       0.28388836      -0.84258920       20        1        0       0.00000000       0.00000000
C      -43.42664503      67.95977057       2.76503722      12.01100000      -0.27153647       1.10438246      -0.11534996       21        1        0       0.00000000       0.00000000
C      -42.79637331      56.84062195       2.18506172      12.01100000       0.51184345      -0.54891201      -0.39191910       22        1        0       0.00000000       0.00000000
C      -43.46720049      58.04481278       2.44696356      12.01100000      -0.56590955      -0.27649021      -0.05986671       23        1        0       0.00000000       0.00000000
C      -42.71355308      59.27811155       2.50305809      12.01100000       0.17502009      -0.07625641       0.81898842       24        1        0       0.00000000       0.00000000
C      -43.41500599      60.52266736       2.66997419      12.01100000      -0.01905832      -0.08890144       0.18862546       25        1        0       0.00000000       0.00000000
C      -42.71554927      61.77374404       2.52065796      12.01100000       0.00914249       0.01617683      -0.12826599       26        1        0       0.00000000       0.00000000
C      -43.38846777      63.04096156       2.73810330      12.01100000      -0.77491498       0.70885578      -0.25955687       27        1        0       0.00000000       0.00000000
C      -42.66875380      64.26962601       2.74980553      12.01100000       0.35110510      -0.05969720      -0.13393446       28        1        0       0.00000000       0.00000000
C      -43.41309529      65.50020608       2.77105731      12.01100000       0.37257134       0.16744486      -0.35141264       29        1        0       0.00000000       0.00000000
C      -42.73808853      66.71150178       2.65006588      12.01100000      -0.10188279      -0.16394496       0.34311056       30        1        0       0.00000000       0.00000000
C      -41.36034284      56.88028955       2.04716463      12.01100000      -0.66429064      -0.02089154      -0.19922976       31        1        0       0.00000000       0.00000000
C      -40.64451304      58.08790500       1.97290088      12.01100000       0.88266412       0.40526024       0.69763160       32        1        0       0.00000000       0.00000000
C      -41.31023168      59.27277250       2.32088046      12.01100000      -0.33307778       0.18871521       0.25515994       33        1        0       0.00000000       0.00000000
C      -40.58060910      60.53847500       2.31804700      12.01100000      -1.02904508      -0.85964494       0.96139591       34        1        0       0.00000000       0.00000000
C      -41.29050248      61.75130154       2.44133374      12.01100000      -0.32840839      -0.35892175       0.20648584       35        1        0       0.00000000       0.00000000
C      -40.61161034      62.99954440       2.48243783      12.01100000      -1.14435318      -0.00373240      -1.14250595       36        1        0       0.00000000       0.00000000
C      -41.27867662      64.25989886       2.59017419      12.01100000       0.05654936       0.59945821       0.17109938       37        1        0       0.00000000       0.00000000
C      -40.58989192      65.49567253       2.57422004      12.01100000       1.04067553      -0.63597737      -0.83988418       38        1        0       0.00000000       0.00000000
C      -41.30918437      66.74416964       2.59769633      12.01100000      -0.31751519      -0.39796434      -0.35731303       39        1        0       0.00000000       0.00000000
C      -40.58584522      67.99509813       2.52667487      12.01100000       0.33366745       0.28878570       0.87720427       40        1        0       0.00000000       0.00000000
C      -39.21693187      67.99467768       2.42752386      12.01100000       1.33633932      -0.61185288      -0.59183966       41        1        0       0.00000000       0.00000000
C      -38.54971301      56.81513927       1.85354231      12.01100000       0.64942574       0.60029365       0.50470746       42        1        0       0.00000000       0.00000000
C      -39.22992214      58.07993628       1.95151958      12.01100000       1.72188586      -0.54029628       0.33724026       43        1        0       0.00000000       0.00000000
C      -38.47089934      59.30140429       1.98623923      12.01100000       0.36859320       0.76022383      -0.43706080       44        1        0       0.00000000       0.00000000
C      -39.14188187      60.51871581       2.22910590      12.01100000      -0.89821200       0.28233058      -0.19588632       45        1        0       0.00000000       0.00000000
C      -38.46782550      61.76850811       2.16159997      12.01100000      -0.27001215       0.29787304      -0.26002808       46        1        0       0.00000000       0.00000000
C      -39.18836514      63.00429867       2.38341345      12.01100000       0.30901799       0.57228230      -0.23791741       47        1        0       0.00000000       0.00000000
C      -38.44497171      64.21121698       2.44425261      12.01100000       0.88945762      -0.08895078      -0.19006045       48        1        0       0.00000000       0.00000000
C      -39.16162681      65.42394487       2.46086869      12.01100000      -0.37929221      -0.25834322       0.44316625       49        1        0       0.00000000       0.00000000
C      -38.43908152      66.71590067       2.41205153      12.01100000       0.41626856       0.21492914      -0.56145650       50        1        0       0.00000000       0.00000000
C      -37.10696236      56.84546332       1.74242926      12.01100000      -0.32663905       0.12912622       0.79407868       51        1        0       0.00000000       0.00000000
C      -36.37723730      58.12262320       1.76529760      12.01100000       0.45650526      -0.34600971      -0.65775233       52        1        0       0.00000000       0.00000000
C      -37.10242875      59.30656312       1.86820474      12.01100000       1.22835213       0.54133686      -0.76551737       53        1        0       0.00000000       0.00000000
C      -36.34705808      60.57536040       2.00880800      12.01100000       0.30349426       0.44324795      -0.49816768       54        1        0       0.00000000       0.00000000
C      -37.06218298      61.80395393       2.10480658      12.01100000       0.74004443       0.26797827       0.14749242       55        1        0       0.00000000       0.00000000
C      -36.31278565      62.97851092       2.22236563      12.01100000       0.22925545      -0.69389988      -0.71782036       56        1        0       0.00000000       0.00000000
C      -37.00350560      64.21943353       2.31373155      12.01100000      -0.51170505       0.05824776       0.37821583       57        1        0       0.00000000       0.00000000
C      -36.27077907      65.46270477       2.35719681      12.01100000       0.48095534      -0.24099966       0.60532785       58        1        0       0.00000000       0.00000000
C      -36.98285770      66.74145081       2.45705703      12.01100000      -0.85679096       0.96620307      -0.10333966       59        1        0       0.00000000       0.00000000
C      -36.24178331      68.01052548       2.41730716      12.01100000       0.52059363       0.06477462       0.70159263       60        1        0       0.00000000       0.00000000
C      -34.91617227     -67.88315026       1.83217290      12.01100000      -0.99215817       0.34432650       0.46896485       61        1        0       0.00000000       0.00000000
C      -47.05303249      69.30347945       2.62423070      12.01100000      -0.11832770       0.14861434       0.57262629       62        1        0       0.00000000       0.00000000
C      -34.91353492      70.48086604       2.32331215      12.01100000       0.77819459      -0.40507464      -0.71490480       63        1        0       0.00000000       0.00000000
C      -47.03411154      71.70514717       2.44821982      12.01100000       0.17317077       0.55249550      -0.60545590       64        1        0       0.00000000       0.00000000
C      -34.94203073      72.95237396       2.00733333      12.01100000       0.25053474      -0.61125553      -0.30931709       65        1        0       0.00000000       0.00000000
C      -47.03887535     -73.98884576       2.43148513      12.01100000      -0.90847911       0.22720577       0.24851467       66        1        0       0.00000000       0.00000000
C      -34.95924346     -72.83416736       1.77021534      12.01100000      -0.63165308      -0.10673666       0.71452433       67        1        0       0.00000000       0.00000000
C      -46.97665298     -71.61217673       2.15715506      12.01100000       0.07005265       0.95149940       0.66862448       68        1        0       0.00000000       0.00000000
C      -34.86249183     -70.36512596       1.83115857      12.01100000       0.57659670      -0.47144697       0.46997930       69        1        0       0.00000000       0.00000000
C      -47.03256472     -69.08346002       2.06165081      12.01100000       0.22508097      -0.07986144       0.06735652       70        1        0       0.00000000       0.00000000
C      -45.65077415      69.25131708       2.80334102      12.01100000       0.48497911       0.33670733       0.76698491       71        1        0       0.00000000       0.00000000
C      -44.91052353      70.43633220       2.79327724      12.01100000      -0.99739837      -0.57768851      -0.50462857       72        1        0       0.00000000       0.00000000
C      -45.59233070      71.67551815       2.75315267      12.01100000      -0.31441145       0.04580937       0.79290095       73        1        0       0.00000000       0.00000000
C      -44.87498595      72.94269568       2.69299303      12.01100000      -0.80820983       0.22512457       0.37334823       74        1        0       0.00000000       0.00000000
C      -45.62264787     -74.02066151       2.66844592      12.01100000       0.79238184       0.80588941       0.31029740       75        1        0       0.00000000       0.00000000
C      -44.88822640     -72.77733691       2.52084855      12.01100000       0.19880296      -0.19564674      -0.10711268       76        1        0       0.00000000       0.00000000
C      -45.56264915     -71.58053339       2.26587048      12.01100000       0.30157502       0.09862585       0.33097716       77        1        0       0.00000000       0.00000000
C      -44.90916520     -70.33182181       2.18874054      12.01100000      -0.43926295      -0.11885025       0.92223559       78        1        0       0.00000000       0.00000000
C      -45.60525808     -69.09461942       2.02624671      12.01100000      -1.06214330       0.63647843       0.13723321       79        1        0       0.00000000       0.00000000
C      -44.89488624     -67.89163761       1.72865717      12.01100000       0.37167901      -0.16108579       0.82426215       80        1        0       0.00000000       0.00000000
C      -43.48675587     -67.83807036       1.87814558      12.01100000       0.94774610      -0.57796138      -0.26836685       81        1        0       0.00000000       0.00000000
C      -42.73461859      69.23833763       2.62371274      12.01100000       0.18571261       0.24782359       0.67504771       82        1        0       0.00000000       0.00000000
C      -43.43984952      70.43597918       2.73958632      12.01100000       0.24078218      -0.19934196      -0.08694339       83        1        0       0.00000000       0.00000000
C      -42.76750496      71.70881105       2.74202359      12.01100000       0.53831311      -0.57775161       0.81219020       84        1        0       0.00000000       0.00000000
C      -43.45395413      72.98864016       2.74682041      12.01100000      -0.64048528      -0.73249275       0.10814500       85        1        0       0.00000000       0.00000000
C      -42.72006941     -73.96925755       2.54108805      12.01100000      -0.15173766       0.42632820       0.68221814       86        1        0       0.00000000       0.00000000
C      -43.44903450     -72.74953692       2.44175030      12.01100000      -0.26240967      -1.07200845      -0.25102664       87        1        0       0.00000000       0.00000000
C      -42.74973043     -71.55760837       2.22032337      12.01100000      -1.41999456       1.45574091       0.19929575       88        1        0       0.00000000       0.00000000
C      -43.47562924     -70.32328908       2.06263913      12.01100000      -0.21454092       1.50282028      -0.37535388       89        1        0       0.00000000       0.00000000
C      -42.76873775     -69.08112408       1.96240326      12.01100000      -0.83655150      -0.66549114       1.43710921       90        1        0       0.00000000       0.00000000
C      -41.29895000      69.24134073       2.57372418      12.01100000      -0.41946700      -0.34537264      -0.09861120       91        1        0       0.00000000       0.00000000
C      -40.61412564      70.48413891       2.48925750      12.01100000      -0.70972182       0.42589318      -0.12783556       92        1        0       0.00000000       0.00000000
C      -41.36859190      71.67687862       2.49578615      12.01100000       0.22438722       0.10920332      -0.06859818       93        1        0       0.00000000       0.00000000
C      -40.65582718      73.00033040       2.37287376      12.01100000      -0.52596750       0.43962095      -1.04186690       94        1        0       0.00000000       0.00000000
C      -41.40060249     -74.00517975       2.26351332      12.01100000       0.22128328      -0.97996958      -0.01762836       95        1        0       0.00000000       0.00000000
C      -40.61078895     -72.80044255       2.04803202      12.01100000      -0.44784916       0.29738357       0.70733683       96        1        0       0.00000000       0.00000000
C      -41.30606151     -71.56925713       2.05910993      12.01100000       0.77885346      -1.05422583       0.30749416       97        1        0       0.00000000       0.00000000
C      -40.62907855     -70.33984496       1.93749164      12.01100000       1.80337523      -0.12402656      -0.26369051       98        1        0       0.00000000       0.00000000
C      -41.35358969     -69.06738160       1.93290855      12.01100000      -0.11436100       0.69648619      -0.48606918       99        1        0       0.00000000       0.00000000
C      -40.64702915     -67.86443239       1.88167548      12.01100000      -0.35289516      -0.12441553       0.97045938      100        1        0       0.00000000       0.00000000
C      -39.18724905     -67.85836557       1.91979599      12.01100000      -0.82664263      -0.77738032      -0.30077440      101        1        0       0.00000000       0.00000000
C      -38.50936357      69.20329471       2.53856217      12.01100000       0.49836609      -0.53154393       0.51386415      102        1        0       0.00000000       0.00000000
C      -39.18206243      70.45981571       2.57118315      12.01100000      -0.49739248      -0.30148113       1.12472800      103        1        0       0.00000000       0.00000000
C      -38.49358501      71.71824436       2.34282462      12.01100000      -0.06934529      -0.58162334      -0.25971886      104        1        0       0.00000000       0.00000000
C      -39.26257702      72.95738914       2.20507785      12.01100000      -0.26516660       0.24709849       0.01336317      105        1        0       0.00000000       0.00000000
C      -38.52208647     -74.00422245       2.12144926      12.01100000       0.77459743       0.69445032       0.42370617      106        1        0       0.00000000       0.00000000
C      -39.19242880     -72.77784595       2.01280270      12.01100000       0.64980175      -0.17601076       0.85172935      107        1        0       0.00000000       0.00000000
C      -38.47647105     -71.58379106       1.97790019      12.01100000      -0.27384505       0.16340787       1.04773409      108        1        0       0.00000000       0.00000000
C      -39.14517959     -70.34905330       1.93744596      12.01100000       1.01080793      -0.14508222       1.72623058      109        1        0       0.00000000       0.00000000
C      -38.45399623     -69.08768588       1.88695990      12.01100000      -0.29681237       0.89622245      -0.33243728      110        1        0       0.00000000       0.00000000
C      -37.06501440      69.19881626       2.50963173      12.01100000       0.01290578      -1.11791317      -0.53532068      111        1        0       0.00000000       0.00000000
C      -36.37243472      70.44140689       2.42381691      12.01100000       0.37563190       0.05460703       0.73705715      112        1        0       0.00000000       0.00000000
C      -37.08085363      71.68263743       2.26362522      12.01100000      -0.37506724      -0.37236279       0.65942180      113        1        0       0.00000000       0.00000000
C      -36.39012576      72.89441965       2.10571236      12.01100000       0.38715613      -0.62307668       0.75880438      114        1        0       0.00000000       0.00000000
C      -37.08307516     -74.03923291       2.05441637      12.01100000       0.48153078      -0.40046541      -0.79247721      115        1        0       0.00000000       0.00000000
C      -36.38368945     -72.81025869       1.83016605      12.01100000       0.25765420      -0.14382593       0.09970254      116        1        0       0.00000000       0.00000000
C      -37.02099621     -71.58026746       1.89257167      12.01100000       0.40161840       0.55090071       0.23182134      117        1        0       0.00000000       0.00000000
C      -36.29657227     -70.35899682       1.80257960      12.01100000       0.20323732       0.23079111      -0.13384410      118        1        0       0.00000000       0.00000000
C      -36.96220516     -69.12201898       1.86649521      12.01100000      -1.06443779       0.53901489       0.64926460      119        1        0       0.00000000       0.00000000
C      -36.31520300     -67.85619231       1.92434007      12.01100000      -0.23790265      -0.23787115      -0.75253849      120        1        0       0.00000000       0.00000000
C      -34.90683757     -55.49945302       1.47675042      12.01100000       0.44707632      -0.35986401      -0.54279644      121        1        0       0.00000000       0.00000000
C      -47.01330292     -66.57494989       1.76765515      12.01100000       0.43753424       0.67895695       0.34288271      122        1        0       0.00000000       0.00000000
C      -34.92881815     -65.39033693       1.83291331      12.01100000       1.03364350       0.20328096       0.56558007      123        1        0       0.00000000       0.00000000
C      -47.04538444     -64.12431061       1.71652798      12.01100000      -0.13991698      -0.05003487      -0.36440262      124        1        0       0.00000000       0.00000000
C      -34.91535149     -62.93413354       1.75718951      12.01100000       0.02095959       0.27806379      -0.07627828      125        1        0       0.00000000       0.00000000
C      -47.03864988     -61.71651351       1.82766610      12.01100000      -0.46413800      -0.22171307      -0.12142128      126        1        0       0.00000000       0.00000000
C      -34.81054312     -60.42311130       1.67885031      12.01100000      -0.67577401      -0.23881159      -0.09617495      127        1        0       0.00000000       0.00000000
C      -47.06567122     -59.17947749       1.81133499      12.01100000       0.01775327       0.12790137       0.15030605      128        1        0       0.00000000       0.00000000
C      -34.86407161     -57.96913794       1.61790686      12.01100000       0.55521948      -0.19914869      -0.08597297      129        1        0       0.00000000       0.00000000
C      -47.01627501     -56.67831639       1.62397709      12.01100000       0.52368990       0.53730212      -0.20629523      130        1        0       0.00000000       0.00000000
C      -45.57732846     -66.56698993       1.63013694      12.01100000      -0.13004832       1.04124103       0.00734923      131        1        0       0.00000000       0.00000000
C      -44.87779423     -65.35870227       1.70245282      12.01100000      -0.02849933       0.35076859       0.43668881      132        1        0       0.00000000       0.00000000
C      -45.62493796     -64.18412345       1.63251469      12.01100000       0.05481190       0.78692162      -0.03004288      133        1        0       0.00000000       0.00000000
C      -44.95251060     -62.93268874       1.71581975      12.01100000      -0.32445548      -0.07778078       0.16195764      134        1        0       0.00000000       0.00000000
C      -45.64519628     -61.70961429       1.79914215      12.01100000       1.32498516      -0.77658062       0.22596196      135        1        0       0.00000000       0.00000000
C      -44.95111250     -60.50882723       1.70169273      12.01100000       0.34374137       0.69174381       0.01460986      136        1        0       0.00000000       0.00000000
C      -45.63745689     -59.24336743       1.64111738      12.01100000      -0.41677017       0.38824584      -0.19446659      137        1        0       0.00000000       0.00000000
C      -44.91904629     -58.02121305       1.50553055      12.01100000       0.10884007       0.22379815      -0.73996493      138        1        0       0.00000000       0.00000000
C      -45.63496958     -56.72409770       1.49883234      12.01100000       0.73366081      -0.16383829      -0.15706853      139        1        0       0.00000000       0.00000000
C      -44.91242104     -55.52720519       1.37681645      12.01100000      -0.31716654       0.61861419      -0.26969569      140        1        0       0.00000000       0.00000000
C      -43.48711765     -55.55571566       1.24009901      12.01100000       0.34580796       0.46462312      -0.12681958      141        1        0       0.00000000       0.00000000
C      -42.75120256     -66.61644024       1.78612163      12.01100000      -1.00689133      -0.70693602       0.24835227      142        1        0       0.00000000       0.00000000
C      -43.45009280     -65.37250830       1.73944183      12.01100000      -0.67832710       0.29616711       0.32687864      143        1        0       0.00000000       0.00000000
C      -42.77407248     -64.12377423       1.71590673      12.01100000      -0.10069282      -0.64577490      -0.78531604      144        1        0       0.00000000       0.00000000
C      -43.46123753     -62.91750145       1.72680909      12.01100000       0.32773720      -0.91753374      -0.21362736      145        1        0       0.00000000       0.00000000
C      -42.74814884     -61.64905101       1.70290688      12.01100000      -0.25221664       1.09193570       0.89513582      146        1        0       0.00000000       0.00000000
C      -43.49255643     -60.44335813       1.65374972      12.01100000       0.48672399       0.16090959      -0.03506179      147        1        0       0.00000000       0.00000000
C      -42.76924058     -59.25267881       1.51733894      12.01100000      -0.43141369       0.30553002      -1.31354423      148        1        0       0.00000000       0.00000000
C      -43.47380057     -57.99205258       1.41837445      12.01100000       0.08230381      -0.56611756       0.89305143      149        1        0       0.00000000       0.00000000
C      -42.74727666     -56.76012409       1.30925081      12.01100000       0.08131576       0.09607727       0.89978355      150        1        0       0.00000000       0.00000000
C      -41.33963532     -66.62917440       1.88517061      12.01100000       1.16353595       0.43746012      -0.94256237      151        1        0       0.00000000       0.00000000
C      -40.63146968     -65.38828029       1.82984962      12.01100000      -0.51105305      -0.39591659       0.46617036      152        1        0       0.00000000       0.00000000
C      -41.32405576     -64.13538135       1.73938655      12.01100000       0.07760000       0.00294705      -0.16645478      153        1        0       0.00000000       0.00000000
C      -40.64096226     -62.91369844       1.81742000      12.01100000       0.06872051       0.53662706       0.14031399      154        1        0       0.00000000       0.00000000
C      -41.30303336     -61.66527465       1.76994100      12.01100000      -0.93744666      -0.06864596      -0.20886706      155        1        0       0.00000000       0.00000000
C      -40.59535792     -60.44381353       1.45506987      12.01100000      -0.61322327       0.52564355       0.45991193      156        1        0       0.00000000       0.00000000
C      -41.29684585     -59.19683022       1.47138015      12.01100000       0.31188007      -0.03129058       0.30246346      157        1        0       0.00000000       0.00000000
C      -40.61247735     -57.99883749       1.25421754      12.01100000      -0.51057584       0.09451131      -0.91546100      158        1        0       0.00000000       0.00000000
C      -41.34082029     -56.75841369       1.16310581      12.01100000       0.10747462       0.18696993      -0.97205681      159        1        0       0.00000000       0.00000000
C      -40.63251069     -55.53967718       1.17737880      12.01100000       0.71257994      -0.22036768       0.69587017      160        1        0       0.00000000       0.00000000
C      -39.14551490     -55.48764302       1.17764333      12.01100000      -0.48540411      -1.09735122       0.43202876      161        1        0       0.00000000       0.00000000
C      -38.47491704     -66.60936294       1.88203626      12.01100000      -0.40911235      -0.63669610      -0.23925470      162        1        0       0.00000000       0.00000000