 DBCSR| CPU Multiplication driver                                           BLAS
 DBCSR| Multrec recursion limit                                              512
 DBCSR| Multiplication stack size                                           1000
 DBCSR| Maximum elements for images                                    UNLIMITED
 DBCSR| Multiplicative factor virtual images                                   1
 DBCSR| Use multiplication densification                                       T
 DBCSR| Multiplication size stacks                                             3
 DBCSR| Use memory pool for CPU allocation                                     F
 DBCSR| Number of 3D layers                                               SINGLE
 DBCSR| Use MPI memory allocation                                              F
 DBCSR| Use RMA algorithm                                                      F
 DBCSR| Use Communication thread                                               T
 DBCSR| Communication thread load                                             87
 DBCSR| MPI: My node id                                                        0
 DBCSR| MPI: Number of nodes                                                 128
 DBCSR| OMP: Current number of threads                                         1
 DBCSR| OMP: Max number of threads                                             1
 DBCSR| Split modifier for TAS multiplication algorithm                  1.0E+00


  **** **** ******  **  PROGRAM STARTED AT               2025-10-22 11:46:00.695
 ***** ** ***  *** **   PROGRAM STARTED ON                             nid002114
 **    ****   ******    PROGRAM STARTED BY                            xr223_ukcp
 ***** **    ** ** **   PROGRAM PROCESS ID                                259985
  **** **  *******  **  PROGRAM STARTED IN /mnt/lustre/a2fs-work3/work/e89/e89/x
                                           r223_ukcp/BINDING-ENERGY-DARREN/bindi
                                           ng-energy/1-leg/s+2.00/d+4.00

 CP2K| version string:                                          CP2K version 9.1
 CP2K| source code revision number:                                  git:d8d7100
 CP2K| cp2kflags: omp libint fftw3 libxc elpa parallel mpi3 scalapack plumed2 mk
 CP2K|            l
 CP2K| is freely available from                            https://www.cp2k.org/
 CP2K| Program compiled at                       Thu 08 Jun 2023 08:54:13 AM BST
 CP2K| Program compiled on                                                  ln03
 CP2K| Program compiled for                                              ARCHER2
 CP2K| Data directory path       /work/y07/shared/apps/core/cp2k/cp2k-9.1.0/data
 CP2K| Input file name                                              cp2k_sub.inp

 GLOBAL| Force Environment number                                              1
 GLOBAL| Basis set file name                                      GTH_BASIS_SETS
 GLOBAL| Potential file name                                           POTENTIAL
 GLOBAL| MM Potential file name                                     MM_POTENTIAL
 GLOBAL| Coordinate file name                                           init.pdb
 GLOBAL| Method name                                                        CP2K
 GLOBAL| Project name                                                    MAT-H2O
 GLOBAL| Run type                                                         ENERGY
 GLOBAL| FFT library                                                       FFTW3
 GLOBAL| Diagonalization library                                            ELPA
 GLOBAL| Minimum number of eigenvectors for ELPA usage                        16
 GLOBAL| Orthonormality check for eigenvectors                          DISABLED
 GLOBAL| Matrix multiplication library                                 ScaLAPACK
 GLOBAL| All-to-all communication in single precision                          F
 GLOBAL| FFTs using library dependent lengths                                  F
 GLOBAL| Grid backend                                                       AUTO
 GLOBAL| Global print level                                                  LOW
 GLOBAL| MPI I/O enabled                                                       T
 GLOBAL| Total number of message passing processes                           128
 GLOBAL| Number of threads for this process                                    1
 GLOBAL| This output is from process                                           0
 GLOBAL| Stack size for threads created by OpenMP (OMP_STACKSIZE)        default
 GLOBAL| CPU model name                          AMD EPYC 7742 64-Core Processor
 GLOBAL| CPUID                                                              1002

 MEMORY| system memory details [Kb]
 MEMORY|                        rank 0           min           max       average
 MEMORY| MemTotal            263266632     263266632     263266632     263266632
 MEMORY| MemFree             241256744     241256744     241256996     241256820
 MEMORY| Buffers                191464        191464        191464        191464
 MEMORY| Cached                1370680       1370680       1371036       1370802
 MEMORY| Slab                  3494928       3494928       3494928       3494928
 MEMORY| SReclaimable           992140        992140        992140        992140
 MEMORY| MemLikelyFree       243811028     243811028     243811636     243811227


 *******************************************************************************
 *******************************************************************************
 **                                                                           **
 **     #####                         ##              ##                      **
 **    ##   ##            ##          ##              ##                      **
 **   ##     ##                       ##            ######                    **
 **   ##     ##  ##   ##  ##   #####  ##  ##   ####   ##    #####    #####    **
 **   ##     ##  ##   ##  ##  ##      ## ##   ##      ##   ##   ##  ##   ##   **
 **   ##  ## ##  ##   ##  ##  ##      ####     ###    ##   ######   ######    **
 **    ##  ###   ##   ##  ##  ##      ## ##      ##   ##   ##       ##        **
 **     #######   #####   ##   #####  ##  ##  ####    ##    #####   ##        **
 **           ##                                                    ##        **
 **                                                                           **
 **                                                ... make the atoms dance   **
 **                                                                           **
 **            Copyright (C) by CP2K developers group (2000-2021)             **
 **                      J. Chem. Phys. 152, 194103 (2020)                    **
 **                                                                           **
 *******************************************************************************


 TOTAL NUMBERS AND MAXIMUM NUMBERS

  Total number of            - Atomic kinds:                                   3
                             - Atoms:                                         67
                             - Shell sets:                                    70
                             - Shells:                                       338
                             - Primitive Cartesian functions:                341
                             - Cartesian basis functions:                    938
                             - Spherical basis functions:                    872

  Maximum angular momentum of- Orbital basis functions:                        2
                             - Local part of the GTH pseudopotential:          2
                             - Non-local part of the GTH pseudopotential:      0


 SCF PARAMETERS         Density guess:                                   RESTART
                        --------------------------------------------------------
                        max_scf:                                              20
                        max_scf_history:                                       0
                        max_diis:                                              4
                        --------------------------------------------------------
                        eps_scf:                                        5.00E-07
                        eps_scf_history:                                0.00E+00
                        eps_diis:                                       1.00E-01
                        eps_eigval:                                     1.00E-05
                        --------------------------------------------------------
                        level_shift [a.u.]:                                 0.00
                        added MOs                                        20    0
                        --------------------------------------------------------
                        Mixing method:                            BROYDEN_MIXING
                                                charge density mixing in g-space
                        --------------------------------------------------------
                        Smear method:                                FERMI_DIRAC
                        Electronic temperature [K]:                        300.0
                        Electronic temperature [a.u.]:                  9.50E-04
                        Accuracy threshold:                             1.00E-10
                        --------------------------------------------------------
                        Outer loop SCF in use 
                        No variables optimised in outer loop
                        eps_scf                                         5.00E-07
                        max_scf                                               20
                        No outer loop optimization
                        step_size                                       5.00E-01

 Number of electrons:                                                        264
 Number of occupied orbitals:                                                132
 Number of molecular orbitals:                                               152

 Number of orbital functions:                                                872
 Number of independent orbital functions:                                    872

 Extrapolation method: initial_guess

 *** WARNING in qs_initial_guess.F:309 :: User requested to restart the    ***
 *** wavefunction from the file named: MAT-H2O-RESTART.wfn. This file does ***
 *** not exist. Please check the existence of the file or change properly  ***
 *** the value of the keyword WFN_RESTART_FILE_NAME. Calculation continues ***
 *** using ATOMIC GUESS.                                                   ***



 SCF WAVEFUNCTION OPTIMIZATION

  Step     Update method      Time    Convergence         Total energy    Change
  ------------------------------------------------------------------------------
     1 NoMix/Diag. 0.40E+00    0.6     1.20919110      -378.5461453631 -3.79E+02
     2 Broy./Diag. 0.40E+00    0.8     0.33207552      -371.2108901877  7.34E+00
     3 Broy./Diag. 0.40E+00    0.8     0.02098576      -379.1367134938 -7.93E+00
     4 Broy./Diag. 0.40E+00    0.8     0.01081010      -382.3451470084 -3.21E+00
     5 Broy./Diag. 0.40E+00    0.8     0.00292599      -382.5302460336 -1.85E-01
     6 Broy./Diag. 0.40E+00    0.8     0.00126651      -382.2201646619  3.10E-01
     7 Broy./Diag. 0.40E+00    0.8     0.00129171      -382.1691504068  5.10E-02
     8 Broy./Diag. 0.40E+00    0.8     0.00205256      -382.1688417778  3.09E-04
     9 Broy./Diag. 0.40E+00    0.8     0.00167762      -382.1603425011  8.50E-03
    10 Broy./Diag. 0.40E+00    0.8     0.00044887      -382.1601323412  2.10E-04
    11 Broy./Diag. 0.40E+00    0.8     0.00076947      -382.1580077950  2.12E-03
    12 Broy./Diag. 0.40E+00    0.8     0.00014722      -382.1586806918 -6.73E-04
    13 Broy./Diag. 0.40E+00    0.8     0.00007083      -382.1591986899 -5.18E-04
    14 Broy./Diag. 0.40E+00    0.8     0.00008130      -382.1586097426  5.89E-04
    15 Broy./Diag. 0.40E+00    0.8     0.00004270      -382.1584440988  1.66E-04
    16 Broy./Diag. 0.40E+00    0.8     0.00001885      -382.1585794130 -1.35E-04
    17 Broy./Diag. 0.40E+00    0.8     0.00000563      -382.1586581412 -7.87E-05
    18 Broy./Diag. 0.40E+00    0.8     0.00000542      -382.1586611789 -3.04E-06
    19 Broy./Diag. 0.40E+00    0.8     0.00000127      -382.1586915971 -3.04E-05
    20 Broy./Diag. 0.40E+00    0.8     0.00000188      -382.1587194171 -2.78E-05

  Leaving inner SCF loop after reaching    20 steps.


  Electronic density on regular grids:       -264.0000000000        0.0000000000
  Core density on regular grids:              263.9999999998       -0.0000000002
  Total charge density on r-space grids:       -0.0000000002
  Total charge density g-space grids:          -0.0000000002

  Overlap energy of the core charge distribution:               0.00000565981676
  Self energy of the core charge distribution:               -897.78766230971098
  Core Hamiltonian energy:                                    276.28444945495164
  Hartree energy:                                             354.78152580492804
  Exchange-correlation energy:                               -115.26206523098990
  Dispersion energy:                                           -0.17497279612162
  Electronic entropic energy:                                  -0.00000000000000
  Fermi energy:                                                -0.07396503650459

  Total energy:                                              -382.15871941712601

  outer SCF iter =    1 RMS gradient =   0.19E-05 energy =       -382.1587194171
     1 Broy./Diag. 0.40E+00    1.5     0.00000137      -382.1587431822 -2.38E-05
     2 Broy./Diag. 0.40E+00    0.8     0.00000208      -382.1587390867  4.10E-06
     3 Broy./Diag. 0.40E+00    0.8     0.00000032      -382.1587237246  1.54E-05

  *** SCF run converged in     3 steps ***


  Electronic density on regular grids:       -264.0000000000        0.0000000000
  Core density on regular grids:              263.9999999998       -0.0000000002
  Total charge density on r-space grids:       -0.0000000002
  Total charge density g-space grids:          -0.0000000002

  Overlap energy of the core charge distribution:               0.00000565981676
  Self energy of the core charge distribution:               -897.78766230971098
  Core Hamiltonian energy:                                    276.28443451965757
  Hartree energy:                                             354.78153895838210
  Exchange-correlation energy:                               -115.26206775666077
  Dispersion energy:                                           -0.17497279612162
  Electronic entropic energy:                                  -0.00000000000000
  Fermi energy:                                                -0.07396445975314

  Total energy:                                              -382.15872372463690

  outer SCF iter =    2 RMS gradient =   0.32E-06 energy =       -382.1587237246
  outer SCF loop converged in   2 iterations or   23 steps


 ENERGY| Total FORCE_EVAL ( QS ) energy [a.u.]:             -382.158723724636900

 -------------------------------------------------------------------------------
 -                                                                             -
 -                                DBCSR STATISTICS                             -
 -                                                                             -
 -------------------------------------------------------------------------------
 COUNTER                                    TOTAL       BLAS       SMM       ACC
 flops     9 x    22 x    24               218592     100.0%      0.0%      0.0%
 flops    22 x     9 x    24               218592     100.0%      0.0%      0.0%
 flops     9 x     9 x    24               268272     100.0%      0.0%      0.0%
 flops    22 x    22 x    24               534336     100.0%      0.0%      0.0%
 flops     9 x    22 x    32              1165824     100.0%      0.0%      0.0%
 flops    22 x     9 x    32              1165824     100.0%      0.0%      0.0%
 flops     9 x     9 x    32              1430784     100.0%      0.0%      0.0%
 flops    22 x    22 x    32              2849792     100.0%      0.0%      0.0%
 flops     9 x    13 x    24              8266752     100.0%      0.0%      0.0%
 flops    13 x     9 x    24              8266752     100.0%      0.0%      0.0%
 flops    22 x    13 x    24             10103808     100.0%      0.0%      0.0%
 flops    13 x    22 x    24             10103808     100.0%      0.0%      0.0%
 flops     9 x    13 x    32             44089344     100.0%      0.0%      0.0%
 flops    13 x     9 x    32             44089344     100.0%      0.0%      0.0%
 flops    22 x    13 x    32             53886976     100.0%      0.0%      0.0%
 flops    13 x    22 x    32             53886976     100.0%      0.0%      0.0%
 flops    13 x    13 x    24            388078080     100.0%      0.0%      0.0%
 flops    13 x    13 x    32           2069749760     100.0%      0.0%      0.0%
 flops inhomo. stacks                           0       0.0%      0.0%      0.0%
 flops total                         2.698374E+09     100.0%      0.0%      0.0%
 flops max/rank                     35.267648E+06     100.0%      0.0%      0.0%
 matmuls inhomo. stacks                         0       0.0%      0.0%      0.0%
 matmuls total                             261970     100.0%      0.0%      0.0%
 number of processed stacks                 23575     100.0%      0.0%      0.0%
 average stack size                                    11.1       0.0       0.0
 marketing flops                     4.617052E+09
 -------------------------------------------------------------------------------
 # multiplications                             23
 max memory usage/rank             346.140672E+06
 # max total images/rank                        2
 # max 3D layers                                1
 # MPI messages exchanged                   85376
 MPI messages size (bytes):
  total size                       536.538112E+06
  min size                           0.000000E+00
  max size                          29.952000E+03
  average size                       6.284414E+03
 MPI breakdown and total messages size (bytes):
             size <=      128               58696                        0
       128 < size <=     8192                   0                        0
      8192 < size <=    32768               26680                536538112
     32768 < size <=   131072                   0                        0
    131072 < size <=  4194304                   0                        0
   4194304 < size <= 16777216                   0                        0
  16777216 < size                               0                        0
 -------------------------------------------------------------------------------

 *** WARNING in dbcsr_mm.F:294 :: Using a non-square number of MPI ranks ***
 *** might lead to poor performance. Used ranks: 128 Suggested: 121 256  ***

 -------------------------------------------------------------------------------
 -                                                                             -
 -                      DBCSR MESSAGE PASSING PERFORMANCE                      -
 -                                                                             -
 -------------------------------------------------------------------------------
 ROUTINE             CALLS      AVE VOLUME [Bytes]
 MP_Bcast               19                     12.
 MP_Allreduce          217                     12.
 MP_Alltoall           656                  51873.
 MP_ISend             1472                   3590.
 MP_IRecv             1472                   2683.
 -------------------------------------------------------------------------------

 -------------------------------------------------------------------------------
 -                                                                             -
 -                                GRID STATISTICS                              -
 -                                                                             -
 -------------------------------------------------------------------------------
 LP    KERNEL             BACKEND                              COUNT     PERCENT
 4     collocate ortho    REF                                1086168      47.11%
 4     integrate ortho    REF                                1040911      45.15%
 2     collocate ortho    REF                                  45192       1.96%
 2     integrate ortho    REF                                  43309       1.88%
 3     collocate ortho    REF                                  36936       1.60%
 3     integrate ortho    REF                                  35397       1.54%
 0     collocate general  REF                                   8576       0.37%
 1     collocate ortho    REF                                   2736       0.12%
 1     integrate ortho    REF                                   2622       0.11%
 0     collocate ortho    REF                                   1920       0.08%
 0     integrate ortho    REF                                   1840       0.08%
 -------------------------------------------------------------------------------

 MEMORY| Estimated peak process memory [MiB]                                 331

 -------------------------------------------------------------------------------
 -                                                                             -
 -                         MESSAGE PASSING PERFORMANCE                         -
 -                                                                             -
 -------------------------------------------------------------------------------

 ROUTINE             CALLS      AVE VOLUME [Bytes]
 MP_Group                5
 MP_Bcast              182                3572116.
 MP_Allreduce          631                   1615.
 MP_Sync                51
 MP_Alltoall           367                3519467.
 MP_SendRecv           276                 432000.
 MP_ISendRecv        17907                  24960.
 MP_Wait             20377
 MP_comm_split          23
 MP_ISend             2090                 368332.
 MP_IRecv             2090                 368432.
 MP_Recv                15                  69760.
 -------------------------------------------------------------------------------


 -------------------------------------------------------------------------------
 -                                                                             -
 -                           R E F E R E N C E S                               -
 -                                                                             -
 -------------------------------------------------------------------------------
 
 CP2K version 9.1, the CP2K developers group (2021).
 CP2K is freely available from https://www.cp2k.org/ .

 Kuehne,Thomas D.; Iannuzzi,Marcella; Del Ben,Mauro;
 Rybkin,Vladimir V.; Seewald,Patrick; Stein,Frederick; Laino,Teodoro;
 Khaliullin,Rustam Z.; Schuett,Ole; Schiffmann,Florian; Golze,Dorothea;
 Wilhelm,Jan; Chulkov,Sergey; Bani-Hashemian,Mohammad Hossein;
 Weber,Valery; Borstnik,Urban; Taillefumier,Mathieu;
 Jakobovits,Alice Shoshana; Lazzaro,Alfio; Pabst,Hans; Mueller,Tiziano;
 Schade,Robert; Guidon,Manuel; Andermatt,Samuel; Holmberg,Nico;
 Schenter,Gregory K.; Hehn,Anna; Bussy,Augustin; Belleflamme,Fabian;
 Tabacchi,Gloria; Gloess,Andreas; Lass,Michael; Bethune,Iain;
 Mundy,Christopher J.; Plessl,Christian; Watkins,Matt;
 VandeVondele,Joost; Krack,Matthias; Hutter,Juerg. 
 The Journal of Chemical Physics, 152 (19), (2020). 
 CP2K: An electronic structure and molecular dynamics software package -
 Quickstep: Efficient and accurate electronic structure calculations.
 https://doi.org/10.1063/5.0007045

 Goerigk, Lars; Hansen, Andreas; Bauer, Christoph; Ehrlich, Stephan;
 Najibi, Asim; Grimme, Stefan. , 19 (48), (2017). 
 A look at the density functional theory zoo with the advanced GMTKN55 database
 for general main group thermochemistry, kinetics and noncovalent interactions.
 https://doi.org/10.1039/C7CP04913G

 Schuett, Ole; Messmer, Peter; Hutter, Juerg; VandeVondele, Joost. 
 Electronic Structure Calculations on Graphics Processing Units, John
 Wiley & Sons, Ltd, 173-190 (2016). 
 GPU-Accelerated Sparse Matrix-Matrix Multiplication for
 Linear Scaling Density Functional Theory.
 https://doi.org/10.1002/9781118670712.ch8

 Borstnik, U; VandeVondele, J; Weber, V; Hutter, J. 
 PARALLEL COMPUTING, 40 (5-6), 47-58 (2014). 
 Sparse matrix multiplication: The distributed block-compressed sparse
 row library.
 https://doi.org/10.1016/j.parco.2014.03.012

 Hutter, J; Iannuzzi, M; Schiffmann, F; VandeVondele, J. 
 WIREs Comput Mol Sci., 4 (1), 15-25 (2014). 
 CP2K: atomistic simulations of condensed matter systems.
 https://doi.org/10.1002/wcms.1159

 Marek, A; Blum, V; Johanni, R; Havu, V; Lang, B; Auckenthaler, T;
 Heinecke, A; Bungartz, H; Lederer, H. 
 Journal of Physics: Condensed Matter, 26 (21), (2014). 
 The ELPA library: scalable parallel eigenvalue solutions for
 electronic structure
 theory and computational science.
 https://doi.org/10.1088/0953-8984/26/21/213201

 Grimme, S; Ehrlich, S; Goerigk, L. 
 JOURNAL OF COMPUTATIONAL CHEMISTRY, 32, 1456 (2011). 
 Effect of the damping function in dispersion corrected density functional theory.
 https://doi.org/10.1002/jcc.21759

 Grimme, S; Antony, J; Ehrlich, S; Krieg, H. 
 JOURNAL OF CHEMICAL PHYSICS, 132 (15), 154104 (2010). 
 A consistent and accurate ab initio parametrization of density
 functional dispersion correction (DFT-D) for the 94 elements H-Pu.
 https://doi.org/10.1063/1.3382344

 VandeVondele, J; Hutter, J. 
 JOURNAL OF CHEMICAL PHYSICS, 127 (11), 114105 (2007). 
 Gaussian basis sets for accurate calculations on molecular systems in
 gas and condensed phases.
 https://doi.org/10.1063/1.2770708

 Krack, M. 
 THEORETICAL CHEMISTRY ACCOUNTS, 114 (1-3), 145-152 (2005). 
 Pseudopotentials for H to Kr optimized for gradient-corrected
 exchange-correlation functionals.
 https://doi.org/10.1007/s00214-005-0655-y

 VandeVondele, J; Krack, M; Mohamed, F; Parrinello, M; Chassaing, T;
 Hutter, J. COMPUTER PHYSICS COMMUNICATIONS, 167 (2), 103-128 (2005). 
 QUICKSTEP: Fast and accurate density functional calculations using a
 mixed Gaussian and plane waves approach.
 https://doi.org/10.1016/j.cpc.2004.12.014

 Frigo, M; Johnson, SG. 
 PROCEEDINGS OF THE IEEE, 93 (2), 216-231 (2005). 
 The design and implementation of FFTW3.
 https://doi.org/10.1109/JPROC.2004.840301

 Hartwigsen, C; Goedecker, S; Hutter, J. 
 PHYSICAL REVIEW B, 58 (7), 3641-3662 (1998). 
 Relativistic separable dual-space Gaussian pseudopotentials from H to Rn.
 https://doi.org/10.1103/PhysRevB.58.3641

 Zhang, YK; Yang, WT. 
 PHYSICAL REVIEW LETTERS, 80 (4), 890-890 (1998). 
 Comment on Generalized gradient approximation made simple.
 https://doi.org/10.1103/PhysRevLett.80.890

 Lippert, G; Hutter, J; Parrinello, M. 
 MOLECULAR PHYSICS, 92 (3), 477-487 (1997). 
 A hybrid Gaussian and plane wave density functional scheme.
 https://doi.org/10.1080/002689797170220

 Perdew, JP; Burke, K; Ernzerhof, M. 
 PHYSICAL REVIEW LETTERS, 77 (18), 3865-3868 (1996). 
 Generalized gradient approximation made simple.
 https://doi.org/10.1103/PhysRevLett.77.3865

 Goedecker, S; Teter, M; Hutter, J. 
 PHYSICAL REVIEW B, 54 (3), 1703-1710 (1996). 
 Separable dual-space Gaussian pseudopotentials.
 https://doi.org/10.1103/PhysRevB.54.1703


 -------------------------------------------------------------------------------
 -                                                                             -
 -                                T I M I N G                                  -
 -                                                                             -
 -------------------------------------------------------------------------------
 SUBROUTINE                       CALLS  ASD         SELF TIME        TOTAL TIME
                                MAXIMUM       AVERAGE  MAXIMUM  AVERAGE  MAXIMUM
 CP2K                                 1  1.0    0.111    0.123   20.838   20.843
 qs_energies                          1  2.0    0.006    0.011   19.628   19.636
 scf_env_do_scf                       1  3.0    0.003    0.006   18.731   18.736
 scf_env_do_scf_inner_loop           23  4.0    0.009    0.012   18.728   18.733
 qs_ks_update_qs_env                 23  5.0    0.001    0.001    8.192    8.198
 rebuild_ks_matrix                   23  6.0    0.003    0.004    8.187    8.191
 qs_ks_build_kohn_sham_matrix        23  7.0    0.011    0.015    8.184    8.190
 rs_pw_transfer                     236  9.5    0.005    0.006    5.593    5.737
 qs_rho_update_rho                   24  5.0    0.001    0.002    5.680    5.683
 calculate_rho_elec                  24  6.0    0.023    0.025    5.679    5.682
 density_rs2pw                       24  7.0    0.004    0.005    4.309    4.470
 sum_up_and_integrate                23  8.0    0.026    0.035    4.180    4.185
 integrate_v_rspace                  23  9.0    0.001    0.002    4.154    4.167
 pw_transfer                        350  9.0    0.064    0.072    3.871    4.019
 fft_wrap_pw1pw2                    304 10.0    0.003    0.005    3.704    3.851
 potential_pw2rs                     23 10.0    0.003    0.003    3.801    3.814
 fft_wrap_pw1pw2_530                116 10.2    0.336    0.383    3.402    3.572
 fft3d_ps                           304 12.0    1.498    1.671    2.823    2.975
 qs_vxc_create                       23  8.0    0.004    0.005    2.781    2.872
 xc_vxc_pw_create                    23  9.0    0.071    0.084    2.778    2.868
 gspace_mixing                       21  5.0    0.020    0.023    2.678    2.680
 qs_scf_new_mos                      23  5.0    0.003    0.005    2.461    2.468
 eigensolver                         23  6.0    0.003    0.005    2.288    2.291
 xc_rho_set_and_dset_create          23 10.0    0.046    0.063    1.927    2.171
 broyden_mixing                      21  6.0    1.996    2.034    2.040    2.056
 rs_pw_transfer_RS2PW_530            25  8.9    1.182    1.355    1.907    2.049
 cp_fm_diag_elpa                     23  7.0    0.000    0.000    2.035    2.043
 cp_fm_redistribute_end              23  8.0    1.756    2.011    1.758    2.011
 rs_pw_transfer_PW2RS_530            23 12.0    1.252    1.306    1.938    1.990
 cp_fm_diag_elpa_base                23  8.0    0.245    1.967    0.248    1.989
 mp_waitany                        2090 11.4    1.377    1.838    1.377    1.838
 pw_nn_compose_r                    138 10.5    0.780    0.824    1.134    1.695
 xc_functional_eval                  23 11.0    0.000    0.001    1.210    1.435
 pbe_lda_eval                        23 12.0    1.209    1.435    1.209    1.435
 grid_collocate_task_list            24  7.0    1.286    1.380    1.286    1.380
 mp_alltoall_z22v                   304 14.0    0.983    1.328    0.983    1.328
 mp_sendrecv_dm2                    276 11.5    0.354    0.979    0.354    0.979
 yz_to_x                            144 12.5    0.123    0.171    0.594    0.845
 mp_waitall_1                     20863 11.5    0.740    0.836    0.740    0.836
 x_to_yz                            160 13.5    0.208    0.247    0.720    0.779
 mp_sum_d                           607  3.6    0.339    0.691    0.339    0.691
 parser_read_line                  9939  4.0    0.004    0.004    0.611    0.629
 parser_read_line_low                15  5.1    0.011    0.577    0.608    0.625
 mp_bcast_i                          81  5.9    0.592    0.624    0.592    0.624
 broadcast_input_information         15  6.1    0.000    0.000    0.597    0.620
 init_scf_run                         1  3.0    0.002    0.003    0.586    0.590
 topology_control                     1  2.0    0.004    0.010    0.576    0.589
 coordinate_control                   1  3.0    0.000    0.001    0.555    0.564
 coordinate_control_READ_COORDI       1  4.0    0.002    0.005    0.555    0.564
 read_coordinate_pdb                  1  5.0    0.003    0.005    0.553    0.561
 rs_pw_transfer_PW2RS_180            23 12.0    0.179    0.207    0.404    0.463
 pw_poisson_solve                    23  8.0    0.169    0.179    0.434    0.438
 -------------------------------------------------------------------------------

 The number of warnings for this run is : 2
 
 -------------------------------------------------------------------------------
  **** **** ******  **  PROGRAM ENDED AT                 2025-10-22 11:46:37.252
 ***** ** ***  *** **   PROGRAM RAN ON                                 nid002114
 **    ****   ******    PROGRAM RAN BY                                xr223_ukcp
 ***** **    ** ** **   PROGRAM PROCESS ID                                259985
  **** **  *******  **  PROGRAM STOPPED IN /mnt/lustre/a2fs-work3/work/e89/e89/x
                                           r223_ukcp/BINDING-ENERGY-DARREN/bindi
                                           ng-energy/1-leg/s+2.00/d+4.00
