(written by ASE)

14640 atoms
3 atom types

0.0      154.00799999999998  xlo xhi
0.0      148.19999999999999  ylo yhi
0.0      151.07609208607428  zlo zhi

Masses

     1      12.010999996910238 # C
     2      1.0079999997406979 # H
     3      15.998999995884349 # O

Atoms # full

     1   0   1   0.0      21.987266744545224      1.8620184143855574      27.176704461414978
     2   0   1   0.0      9.8923204468759192     -9.3012648187554117       27.72382939379025
     3   0   1   0.0       21.98426350700435     -8.0376820056980041      27.450390494521901
     4   0   1   0.0      9.9105110874278868     -6.7617368020351387      27.867702472672438
     5   0   1   0.0      21.941736720215619     -5.5176950838031216      27.375084026378683
     6   0   1   0.0      9.8816244261243611     -4.3284095218479379      27.846132297337675
     7   0   1   0.0      21.977704033525345     -3.1088795673181369      27.226136231228093
     8   0   1   0.0      9.9007005904757008     -1.8439260265448643      27.882360213191536
     9   0   1   0.0      21.980924771920346      -0.579961490513352      27.106238546442775
    10   0   1   0.0      9.8556884417249719     0.59743037773540775      28.011850963518622
    11   0   1   0.0      11.291802822115795     -9.2875213277364796      27.702878557621485
    12   0   1   0.0      12.001002750674118     -8.0028168022163122      27.802649632844137
    13   0   1   0.0       11.32030204032897     -6.7627325256836466      27.933091792187426
    14   0   1   0.0      12.038144509581397     -5.5365340519430761      27.889353760826516
    15   0   1   0.0      11.302418309429394     -4.2940462852088466      27.869308655884236
    16   0   1   0.0      12.030999966388366     -3.0403455583481467      27.889597714756324
    17   0   1   0.0      11.317535868804862     -1.8365427407688939      27.880192856864902
    18   0   1   0.0      12.042192577309992    -0.59566397754560296      27.932814809224237
    19   0   1   0.0      11.318569429824933     0.60476360753790737      28.048408110471673
    20   0   1   0.0      12.006432866940591       1.866719185724778      28.131295236398032
    21   0   1   0.0      13.443323335923891      1.8390046198355057      28.131323447787114
    22   0   1   0.0      14.121271612612977     -9.2397636836244299      27.419654314522884
    23   0   1   0.0      13.438653370193887     -8.0433837378168427      27.667307774702749
    24   0   1   0.0      14.158337357014094     -6.7840910105566694      27.689653522190902
    25   0   1   0.0      13.499385264138798     -5.5558406519035168      27.742976793069328
    26   0   1   0.0       14.14658852270831     -4.2964534759507798      27.887200246748563
    27   0   1   0.0      13.418231744815333     -3.0541401437719569      27.982140118970896
    28   0   1   0.0      14.159145033376607     -1.8522766728195927      28.009703250185407
    29   0   1   0.0      13.428007958351596    -0.61468289451400193       27.99857907037666
    30   0   1   0.0      14.123423580213464     0.61110473719568403      28.104055928665698
    31   0   1   0.0      15.540039704447645      -9.265579566322721      27.460562450816035
    32   0   1   0.0      16.267250844733162     -8.0765782724631165      27.529113981016412
    33   0   1   0.0      15.554126582523821     -6.8028371100290022      27.550581354167747
    34   0   1   0.0       16.26113797681419      -5.539757734174712      27.610161056842728
    35   0   1   0.0      15.564611072696628      -4.308048463069583      27.868084354898997
    36   0   1   0.0      16.306124322743269     -3.1078849311517822      27.825618769392474
    37   0   1   0.0      15.586058111514648     -1.8811807796489604      27.950785611090918
    38   0   1   0.0       16.28705053528714    -0.60861633859293385      27.856878086577883
    39   0   1   0.0      15.557870425686064     0.64431663149266072       27.99202030422212
    40   0   1   0.0       16.28865808022249      1.8725933420062078      27.840669966431879
    41   0   1   0.0      17.643257573002099      1.8729396711029069      27.684842726955964
    42   0   1   0.0      18.385346461708867     -9.2128126358350695       27.36625070072806
    43   0   1   0.0      17.687368833779253     -8.0278495153426377      27.386757721308449
    44   0   1   0.0       18.41235820858364     -6.7779439872681175      27.406547504501688
    45   0   1   0.0      17.666385844048719     -5.5483684154947701      27.544125277040486
    46   0   1   0.0      18.385148778289548     -4.2995567048371397      27.613771811128913
    47   0   1   0.0      17.729106525883115     -3.0774546834999286      27.746562374664759
    48   0   1   0.0      18.464057670296349     -1.7830856113714693      27.714601314407769
    49   0   1   0.0      17.703022380733088    -0.60447603848237808      27.724255215236759
    50   0   1   0.0      18.414734174171162      0.6280517819769883      27.631654657575673
    51   0   1   0.0       19.80563323932541     -9.2694006453142439      27.226870751841911
    52   0   1   0.0      20.522609961079066      -8.019528627915296      27.407745060089375
    53   0   1   0.0      19.842870160354838     -6.7551548049707479      27.462416797907593
    54   0   1   0.0      20.543654652578226     -5.5291026809905759      27.385257912044015
    55   0   1   0.0      19.797817901679668     -4.2931720337700856      27.435674031395827
    56   0   1   0.0      20.535877345322287     -3.0735581291546112      27.299153514876696
    57   0   1   0.0      19.842926314272987      -1.797611217568494      27.451731719829358
    58   0   1   0.0      20.548504113760405    -0.56110321113848471      27.319701746207638
    59   0   1   0.0      19.799991147318078      0.6154795871301022      27.349950774135586
    60   0   1   0.0      20.533001977445227      1.8716612509495689      27.294297493839295
    61   0   1   0.0      22.003066742057722      14.258456807269955      27.900230830218888
    62   0   1   0.0      9.8232888494835784      3.0939479586017353      28.134835077840368
    63   0   1   0.0      21.949353658927624      4.4112734300750471      27.253256594673392
    64   0   1   0.0      9.8331822306032084      5.6222868040589624      28.057673555709993
    65   0   1   0.0      21.913338025815332      6.8143101717496695      27.536408167228764
    66   0   1   0.0      9.8884163049290503      8.1083682334108822      28.166959591196651
    67   0   1   0.0      21.971406055896509      9.2862403106100775       27.63228321704306
    68   0   1   0.0      9.8436048551566397      10.506837406442958      28.134679578355616
    69   0   1   0.0      21.985932617942051      11.756715475562412      27.850472467459969
    70   0   1   0.0      9.8933696574850227      13.030625440590402      28.356264394156725
    71   0   1   0.0      11.198984449808115      3.0496434389917613      28.153987260170183
    72   0   1   0.0       11.97255340643415      4.2501129900756975      28.088492039194431
    73   0   1   0.0      11.302647905310506      5.5609712121910082      28.089184300708578
    74   0   1   0.0      12.013210184955849      6.8332824478891006      28.026657175806093
    75   0   1   0.0      11.285023588094639      8.0608043870840209      28.084191296839354
    76   0   1   0.0      12.045194334196408      9.2838303501046973      28.031437440663581
    77   0   1   0.0      11.300115949896544      10.499005880505839      28.102946580301396
    78   0   1   0.0      12.016883065745038      11.793414237189401      28.119165601452341
    79   0   1   0.0      11.318555866109351      13.013190702250625      28.381687608144034
    80   0   1   0.0        12.0363256340665      14.211786271814784      28.522189288783785
    81   0   1   0.0      13.447615681684201      14.170825804469565      28.502880908146661
    82   0   1   0.0      14.138704973880429       3.108133130369755      28.097715098590715
    83   0   1   0.0      13.404483800647318       4.356011487919754      28.032020150065225
    84   0   1   0.0      14.109770803745985      5.6083135241776061       28.03613927290764
    85   0   1   0.0      13.471157986502531      6.8564524943489671      28.007649363520827
    86   0   1   0.0      14.152009270382463      8.0851107259926049      27.901065764377467
    87   0   1   0.0      13.442696371136792      9.3014993579662804      27.901937161761175
    88   0   1   0.0      14.137752757840847      10.523005257813663      27.966867054835173
    89   0   1   0.0      13.401375608139238      11.755168387177656      28.176190487064975
    90   0   1   0.0       14.17833056105763      12.972389601183563      28.333312561891525
    91   0   1   0.0       15.59616339925571      3.0699398280126262      27.907531797972005
    92   0   1   0.0      16.240164606435336       4.332424229576552      27.777932417420249
    93   0   1   0.0      15.520151762498978      5.5381452257219204      27.823232996290301
    94   0   1   0.0      16.273998288299925      6.8094020696286393      27.806664390373236
    95   0   1   0.0      15.592305981881275       8.052083668276337      28.000380980522188
    96   0   1   0.0      16.273074303098863      9.2729555299109574      27.901813434967337
    97   0   1   0.0      15.545516899997562      10.483521953623654      27.959198723681684
    98   0   1   0.0      16.305741701736007      11.730714550382659      28.004183776721135
    99   0   1   0.0      15.608523721826746      12.981588526394269      28.176907784693007
   100   0   1   0.0      16.291437586596771      14.200549851606526      28.200482775694493
   101   0   1   0.0      17.719592344491645      14.200624213478836      28.072493099906954
   102   0   1   0.0      18.355249859633638      3.0423647108421625      27.533216577072821
   103   0   1   0.0       17.62348855530902      4.3224435765166831      27.556077667409912
   104   0   1   0.0       18.35192377557069      5.5586013053805168      27.566688073320019
   105   0   1   0.0      17.709834725827882       6.848512824361392      27.706953944579606
   106   0   1   0.0      18.395995495222166       8.063127562673909      27.724398297633307
   107   0   1   0.0      17.672097150392528      9.2624521389791266      27.850876703914917
   108   0   1   0.0      18.372416549540699      10.541479387215309      27.954547022122306
   109   0   1   0.0      17.734771872957364      11.777330688774187      27.966776149747322
   110   0   1   0.0       18.45647045244997      13.006040415047304       28.00324875178244
   111   0   1   0.0      19.801630980229255      3.1186711914466443      27.383820646392088
   112   0   1   0.0      20.469689218007353      4.3683969474493383      27.347306030274446
   113   0   1   0.0       19.78329289731472      5.5704494186263309      27.513750549063726
   114   0   1   0.0      20.492463089254972      6.8093874009007074      27.519954491035655
   115   0   1   0.0      19.791561719085966      8.0332142033593357      27.622246189815407
   116   0   1   0.0      20.525126686820691      9.2684883926965931      27.698702397719678
   117   0   1   0.0      19.800684705965679      10.484625742634533      27.918725828697596
   118   0   1   0.0      20.599132463734879      11.747185139346985      28.010647689329268
   119   0   1   0.0      19.846862641537399      12.995612469699996      28.027634467482262
   120   0   1   0.0      20.550501545002046      14.255487838242814      27.930310554061396
   121   0   1   0.0      22.037241983815061      26.549526636377038      27.459624620634354
   122   0   1   0.0      9.8809919409715956      15.478673728320528      28.361495317990165
   123   0   1   0.0      21.987672780062393      16.709779975186787      27.961918810818151
   124   0   1   0.0      9.8722924894289825      17.945034885350704      28.089251079243759
   125   0   1   0.0      21.985282327450363      19.197413742596446      27.997702983224983
   126   0   1   0.0      9.8479307024399372      20.445100164933343       27.87781227930758
   127   0   1   0.0      21.972430524389672      21.602909294958575      27.752384505068999
   128   0   1   0.0      9.8830769281805519       22.85807992414189      27.702851984708705
   129   0   1   0.0       21.95002190480665      24.043551565851008       27.47316366862513
   130   0   1   0.0      9.8935803722152134      25.354356522248196      27.572888560686906
   131   0   1   0.0      11.303674963936194      15.484691890411513      28.514955719274088
   132   0   1   0.0      12.050943343856723       16.68597846843647      28.387430468130653
   133   0   1   0.0      11.325418883392112      17.944679667854412      28.218713096369314
   134   0   1   0.0      12.082743686746133      19.141506002406047      28.040247794352961
   135   0   1   0.0      11.297152749678954      20.387918990301916      27.809304531408095
   136   0   1   0.0      12.056542303636652      21.631481031155481      27.772277880024003
   137   0   1   0.0      11.332749721380342      22.870873555031196      27.661184972477631
   138   0   1   0.0      12.036795036640283      24.133464021463993      27.582792165962349
   139   0   1   0.0      11.326088875019121      25.353565332352748      27.574787596851483
   140   0   1   0.0      12.132407225740527      26.553950814528729      27.675182740691771
   141   0   1   0.0      13.557384726221789      26.543597863144814      27.717699676184061
   142   0   1   0.0      14.123953759029755      15.377088936789079      28.308931833418129
   143   0   1   0.0      13.447137170387997       16.64193625375038      28.307203303005128
   144   0   1   0.0      14.086768105938317      17.874297985901684      28.185552222886308
   145   0   1   0.0      13.513302277283044      19.153699451129825      28.102794570155151
   146   0   1   0.0      14.186579447222458      20.377062533128512      27.788946458596598
   147   0   1   0.0      13.474509053210484      21.587869627021576      27.652607379900129
   148   0   1   0.0      14.193896410315203      22.829211081592511      27.528527778750622
   149   0   1   0.0      13.448314382042698      24.110326693246183        27.5278787299724
   150   0   1   0.0      14.197422653406287      25.287014221512717       27.64462868236685
   151   0   1   0.0      15.575221455317276      15.445369602598849       28.23586518577784
   152   0   1   0.0      16.269841892149415      16.669691586029746      28.161259099309454
   153   0   1   0.0      15.587284042275948      17.905283597643706      28.142740945477719
   154   0   1   0.0      16.229456849599142      19.171330465361912       28.00737292870998
   155   0   1   0.0      15.586134682798843       20.44228980553487      27.841039823525403
   156   0   1   0.0      16.298223259126402      21.638021965787996      27.674302316184313
   157   0   1   0.0      15.581890940142411      22.841535606581491      27.648006612443325
   158   0   1   0.0      16.291490355526989      24.056480194051943      27.682331975508987
   159   0   1   0.0      15.589294735572432      25.279588623133684      27.709290923306735
   160   0   1   0.0      16.302225374219429      26.467548448631852      27.803033882236232
   161   0   1   0.0      17.760171042954745      26.530518265641714      27.660433283432052
   162   0   1   0.0      18.397069590862063      15.427546006217401      28.034448122265715
   163   0   1   0.0       17.68493645257109       16.68906220569556      28.215857539113163
   164   0   1   0.0      18.401678598797577      17.965723558384585      28.013007669580421
   165   0   1   0.0      17.681312464659321      19.156013133554303      28.001664571814437
   166   0   1   0.0      18.404223682533587      20.390164350071409      27.848376311864318
   167   0   1   0.0      17.735253002333689      21.628119830714901      27.793683597016827
   168   0   1   0.0      18.472950527593891      22.854003161913514       27.76046808274393
   169   0   1   0.0      17.702630987110762       24.08776766999171       27.80949147510962
   170   0   1   0.0      18.440535100098185      25.331185637514771      27.683663667177139
   171   0   1   0.0        19.8015808912062      15.457329408016951      27.929441344514892
   172   0   1   0.0      20.553906619312166      16.708863737125338      27.884134287443967
   173   0   1   0.0      19.848913201402741      17.994607566400422      27.851249360003472
   174   0   1   0.0      20.575060742604862       19.19482957768335      27.867538784594121
   175   0   1   0.0      19.847375160445445      20.402590467278209      27.750550559597286
   176   0   1   0.0      20.520299038910323      21.604110032105037      27.675850742388594
   177   0   1   0.0      19.844109605930178      22.845150469545871      27.657061395624147
   178   0   1   0.0      20.543952343323511      24.073848760085351      27.529465249463296
   179   0   1   0.0       19.88010313380758      25.368413706152374      27.453544511852151
   180   0   1   0.0      20.572956676152689      26.577357153370322      27.388520376227234
   181   0   1   0.0      22.053197551992568      38.845948839972515      27.364606509194619
   182   0   1   0.0      9.9468060125540063      27.798867548481336      27.585778501896673
   183   0   1   0.0      22.057877968337685      29.083374447532488      27.405069801333994
   184   0   1   0.0      9.9145988402812115      30.212527431734497      27.506553834385883
   185   0   1   0.0      22.006601908637958      31.519850488773844      27.111160490112315
   186   0   1   0.0      9.9295715239633235      32.708402388471882      27.472038036215832
   187   0   1   0.0      22.062582015247518      33.930614295678367      27.165426610928758
   188   0   1   0.0      9.9441669306050962      35.194630433433069      27.486906809406221
   189   0   1   0.0       22.08635673688914      36.423541080569386      27.377110786206238
   190   0   1   0.0      9.8476505029792438      37.678712663103212      27.497625234647401
   191   0   1   0.0      11.349259889074913      27.748163459768438      27.730259934067867
   192   0   1   0.0      12.042844449328944      28.993117398343681      27.684130783574702
   193   0   1   0.0      11.329533206418288       30.19230308308617      27.521013779463388
   194   0   1   0.0      12.025917821131896      31.414992445776157      27.504247403158242
   195   0   1   0.0       11.37029369206615      32.697089037900113      27.487487950623603
   196   0   1   0.0      12.079309016296476      33.900055722645746      27.573727515419844
   197   0   1   0.0      11.358534304800845       35.13783954540547      27.591997746650058
   198   0   1   0.0      12.043317319076355      36.402553365171485      27.696456714298378
   199   0   1   0.0      11.255394432259456      37.653685284210425      27.734629600032704
   200   0   1   0.0      12.055627170150194      38.864086380185498      27.790693166364953
   201   0   1   0.0      13.463418772319956      38.895368366334687       27.78018052499846
   202   0   1   0.0        14.2266017101269      27.770869845425647      27.670661427602006
   203   0   1   0.0      13.472794021638705      28.955379784566706      27.566104398413106
   204   0   1   0.0       14.23193076790564      30.147116607351204      27.453299277475249
   205   0   1   0.0      13.485470129623879      31.398854875683778      27.482944795131402
   206   0   1   0.0      14.162650435628585      32.636545467513265      27.463883155587148
   207   0   1   0.0      13.511153207422117      33.910521362323649      27.516842199670165
   208   0   1   0.0      14.186027101423848      35.158848972503684      27.565005682538189
   209   0   1   0.0      13.430578135670327      36.406657219082192      27.680511182719691
   210   0   1   0.0      14.160826267411233      37.622869548621836      27.750577548373428
   211   0   1   0.0      15.641023076992647       27.74122687105087      27.699500369400884
   212   0   1   0.0      16.348512811414476      28.932476384255285      27.545130612773157
   213   0   1   0.0      15.644585782040721      30.161102928250674      27.496345015936605
   214   0   1   0.0      16.297795173619335      31.423706126374054      27.407823719607151
   215   0   1   0.0      15.620560480029047      32.655939104433386      27.462609987052033
   216   0   1   0.0      16.300868876814082      33.911528980014978      27.393288598833617
   217   0   1   0.0      15.649324567446028      35.113415874368812      27.465858508265686
   218   0   1   0.0      16.339859829072296      36.394607162596998       27.52111470958754
   219   0   1   0.0      15.616173495192985      37.583109959259112      27.673098911200203
   220   0   1   0.0      16.315070864406067      38.858587625214618      27.757033132736229
   221   0   1   0.0      17.736747673069189      38.870190433067044      27.621433364379016
   222   0   1   0.0      18.525411523153224      27.763207678966509      27.480776993316915
   223   0   1   0.0       17.79307133957872      28.937812617545696      27.549173753719874
   224   0   1   0.0       18.41436963685096      30.196876032855265       27.42930707523735
   225   0   1   0.0      17.718800486994098      31.446185961115432      27.339455461324203
   226   0   1   0.0      18.429969815231296      32.673107978068096      27.199887418207521
   227   0   1   0.0      17.710818285650479      33.934116643399094      27.284925866100057
   228   0   1   0.0      18.462889856277432      35.187943866794711      27.277529029490836
   229   0   1   0.0      17.753385998293343      36.389916986840412       27.45521250912757
   230   0   1   0.0      18.464032580640346      37.604845126685696      27.518749563711776
   231   0   1   0.0       19.89704088431467      27.799814092337343      27.424300712390568
   232   0   1   0.0      20.622961455425482      29.010240487611174      27.371513777767081
   233   0   1   0.0      19.854155227901963      30.244492876028879      27.334584304160121
   234   0   1   0.0      20.543946345541531      31.506540502824738      27.254101284945275
   235   0   1   0.0      19.838843923342139      32.707742828062976       27.15597992158629
   236   0   1   0.0      20.594262978284274      33.905760134976177      27.110278691990278
   237   0   1   0.0      19.872465304907763       35.14402088598338      27.200501003467647
   238   0   1   0.0      20.603203126843141      36.376454201317571        27.3983069885589
   239   0   1   0.0      19.878856791783967      37.647683299726843      27.324147561099501
   240   0   1   0.0       20.59768213832734      38.879691559790558      27.409355213569235
   241   0   1   0.0      22.016920267181483      51.246449740757498      27.556977576775488
   242   0   1   0.0       9.882588272915477      40.170617119374931      27.724534310414569
   243   0   1   0.0       22.07732844290334      41.348157848304282      27.390408692531054
   244   0   1   0.0      9.9041636098388288      42.660671537490067       27.82843586013928
   245   0   1   0.0      22.024971376586091      43.786403611750643      27.412073304516277
   246   0   1   0.0      9.8950942827600326      45.147652002359678      27.804799106463971
   247   0   1   0.0      22.099578963928284      46.282264468996004      27.490632390713092
   248   0   1   0.0      9.9095824919804532       47.58855601531144      27.944530347778574
   249   0   1   0.0      22.052907990627887      48.772737607959641      27.529133439401168
   250   0   1   0.0      9.9800986169447157      50.000358607724216      28.099361335537235
   251   0   1   0.0      11.337051464960062      40.137279725530966      27.804071951595919
   252   0   1   0.0      12.052975775827928      41.430132891928629      27.825474131973959
   253   0   1   0.0      11.323782556842234      42.654200588359757      27.836471446448662
   254   0   1   0.0      12.072308697107809      43.890833522113823       27.82497676253486
   255   0   1   0.0      11.345493462552195       45.14082578310579      27.877962892925144
   256   0   1   0.0      12.105458043196723      46.334848421850602      27.790585927127477
   257   0   1   0.0      11.366773716145342      47.534624027351157       27.86598846515259
   258   0   1   0.0      12.081309513105181       48.75147232948401      27.942178375945801
   259   0   1   0.0      11.416240936965107      50.007461042744929      28.065414935220989
   260   0   1   0.0      12.124916627943104      51.250918443074099      28.080389180429695
   261   0   1   0.0      13.550841657742733      51.203175676850414      27.932864772500423
   262   0   1   0.0      14.229601192222525      40.141677743249424      27.804399912440232
   263   0   1   0.0      13.485261885842782       41.42873045897948      27.827702408378464
   264   0   1   0.0      14.253304531621342      42.662608320183992      27.771321117012342
   265   0   1   0.0      13.511693319728501      43.854838719814659      27.735690118047259
   266   0   1   0.0      14.203826228395307      45.109710771183828      27.618317321069867
   267   0   1   0.0      13.515352973114048      46.332540894993151      27.691728802922949
   268   0   1   0.0      14.221280743340392      47.543924385197087      27.754937281433776
   269   0   1   0.0      13.485527773560992      48.774639704298231       27.88134655523297
   270   0   1   0.0      14.239657818628256      49.946620384086486      27.776067210196423
   271   0   1   0.0      15.632156692324868      40.108580298692928      27.847317456091687
   272   0   1   0.0      16.356804734065356      41.323861898089717      27.764522737990518
   273   0   1   0.0      15.669379507103443      42.586448247940375       27.72953417519814
   274   0   1   0.0      16.391752578559771      43.827264548607722      27.608957460580939
   275   0   1   0.0      15.642027545311862      45.088126565726959      27.522992272670717
   276   0   1   0.0      16.340003751948988      46.356129659327813      27.575957001308286
   277   0   1   0.0      15.654381621875817      47.570435793472242      27.687419478488568
   278   0   1   0.0      16.377371104738476      48.786122610714472      27.748291431445217
   279   0   1   0.0      15.642000440950348      49.970191372496046      27.857058135495439
   280   0   1   0.0      16.362967596712242        51.2135838029197      27.836956929185259
   281   0   1   0.0      17.765840250351228      51.233049263133687      27.802222332909679
   282   0   1   0.0      18.493382112316471      40.123661963921606      27.654036919861646
   283   0   1   0.0      17.742855029060109      41.367686784971312      27.640311635064727
   284   0   1   0.0      18.496057394432221      42.577687040913865      27.652451178468066
   285   0   1   0.0      17.825062760188523      43.810604899758012      27.587050993811673
   286   0   1   0.0      18.521040656622301       45.03783609918603      27.622809895669363
   287   0   1   0.0      17.806215019535209      46.306680984966029      27.623763483995905
   288   0   1   0.0      18.513615680958647      47.529824507904486      27.608557716952127
   289   0   1   0.0      17.792003954183667      48.758110105494552      27.639348188259397
   290   0   1   0.0      18.470645577839903      50.005935462731919      27.620122627262514
   291   0   1   0.0      19.918671394005166      40.096524417526069       27.54552043212766
   292   0   1   0.0      20.648088931367774      41.302482198043585      27.486745762219144
   293   0   1   0.0      19.978908773008531      42.532277665250135      27.549270373384324
   294   0   1   0.0      20.650431610920606      43.775862718670759      27.531829062177945
   295   0   1   0.0      19.906595449797251        45.0703089531793      27.456407101714323
   296   0   1   0.0      20.650420847512137      46.288912514749626      27.490746799537387
   297   0   1   0.0      19.916766945997445      47.523511081038585      27.539240886365615
   298   0   1   0.0      20.633854681720216      48.780108683442805      27.523654783275763
   299   0   1   0.0      19.882962728506758      50.043520401246596      27.596845688511014
   300   0   1   0.0      20.601504504986337      51.256562882164182      27.628758139691314
   301   0   1   0.0      22.057305492915731      63.619184922794616      28.479311397398842
   302   0   1   0.0      9.9574134028526906      52.485701660126082      28.292343850701059
   303   0   1   0.0       22.02287901914994      53.660061258441139      27.684616031205685
   304   0   1   0.0      9.9943218917633985      54.913868717013919      28.449428885030429
   305   0   1   0.0      21.989500358636914      56.191176977681046      27.962305988226824
   306   0   1   0.0      9.9404104886092792      57.389377887029163      28.766916740321435
   307   0   1   0.0      22.067226189401996      58.619635425279711      28.290153609496368
   308   0   1   0.0      9.9934226472522987      59.854050749931815      28.757773094808929
   309   0   1   0.0      21.978607098552096      61.109568004741753      28.532102317729862
   310   0   1   0.0      9.8998452732838214      62.318339496809863      28.740354870780592
   311   0   1   0.0      11.419260978215398      52.434762050512539      28.280179016293907
   312   0   1   0.0      12.110833150462982      53.712997583935248      28.273856636398904
   313   0   1   0.0      11.408873577365631       54.95552150910838      28.427656174404099
   314   0   1   0.0      12.088030341691026      56.177463410848922      28.629829038091959
   315   0   1   0.0      11.402844488568409      57.416790913209518      28.732289608774146
   316   0   1   0.0      12.084632826098144      58.631356523591968      28.686139042103093
   317   0   1   0.0      11.339803457523841      59.894882632555351      28.751504406153948
   318   0   1   0.0      12.063307295188066      61.136385932487869      28.842787395780185
   319   0   1   0.0      11.315852399683218      62.368774551956456      28.804986458662793