 DBCSR| CPU Multiplication driver                                           BLAS
 DBCSR| Multrec recursion limit                                              512
 DBCSR| Multiplication stack size                                           1000
 DBCSR| Maximum elements for images                                    UNLIMITED
 DBCSR| Multiplicative factor virtual images                                   1
 DBCSR| Use multiplication densification                                       T
 DBCSR| Multiplication size stacks                                             3
 DBCSR| Use memory pool for CPU allocation                                     F
 DBCSR| Number of 3D layers                                               SINGLE
 DBCSR| Use MPI memory allocation                                              F
 DBCSR| Use RMA algorithm                                                      F
 DBCSR| Use Communication thread                                               T
 DBCSR| Communication thread load                                             87
 DBCSR| MPI: My node id                                                        0
 DBCSR| MPI: Number of nodes                                                 128
 DBCSR| OMP: Current number of threads                                         1
 DBCSR| OMP: Max number of threads                                             1
 DBCSR| Split modifier for TAS multiplication algorithm                  1.0E+00


  **** **** ******  **  PROGRAM STARTED AT               2025-10-22 11:37:35.347
 ***** ** ***  *** **   PROGRAM STARTED ON                             nid004056
 **    ****   ******    PROGRAM STARTED BY                            xr223_ukcp
 ***** **    ** ** **   PROGRAM PROCESS ID                                130325
  **** **  *******  **  PROGRAM STARTED IN /mnt/lustre/a2fs-work3/work/e89/e89/x
                                           r223_ukcp/BINDING-ENERGY-DARREN/bindi
                                           ng-energy/1-leg/s+0.00/d+4.00

 CP2K| version string:                                          CP2K version 9.1
 CP2K| source code revision number:                                  git:d8d7100
 CP2K| cp2kflags: omp libint fftw3 libxc elpa parallel mpi3 scalapack plumed2 mk
 CP2K|            l
 CP2K| is freely available from                            https://www.cp2k.org/
 CP2K| Program compiled at                       Thu 08 Jun 2023 08:54:13 AM BST
 CP2K| Program compiled on                                                  ln03
 CP2K| Program compiled for                                              ARCHER2
 CP2K| Data directory path       /work/y07/shared/apps/core/cp2k/cp2k-9.1.0/data
 CP2K| Input file name                                              cp2k_sub.inp

 GLOBAL| Force Environment number                                              1
 GLOBAL| Basis set file name                                      GTH_BASIS_SETS
 GLOBAL| Potential file name                                           POTENTIAL
 GLOBAL| MM Potential file name                                     MM_POTENTIAL
 GLOBAL| Coordinate file name                                           init.pdb
 GLOBAL| Method name                                                        CP2K
 GLOBAL| Project name                                                    MAT-H2O
 GLOBAL| Run type                                                         ENERGY
 GLOBAL| FFT library                                                       FFTW3
 GLOBAL| Diagonalization library                                            ELPA
 GLOBAL| Minimum number of eigenvectors for ELPA usage                        16
 GLOBAL| Orthonormality check for eigenvectors                          DISABLED
 GLOBAL| Matrix multiplication library                                 ScaLAPACK
 GLOBAL| All-to-all communication in single precision                          F
 GLOBAL| FFTs using library dependent lengths                                  F
 GLOBAL| Grid backend                                                       AUTO
 GLOBAL| Global print level                                                  LOW
 GLOBAL| MPI I/O enabled                                                       T
 GLOBAL| Total number of message passing processes                           128
 GLOBAL| Number of threads for this process                                    1
 GLOBAL| This output is from process                                           0
 GLOBAL| Stack size for threads created by OpenMP (OMP_STACKSIZE)        default
 GLOBAL| CPU model name                          AMD EPYC 7742 64-Core Processor
 GLOBAL| CPUID                                                              1002

 MEMORY| system memory details [Kb]
 MEMORY|                        rank 0           min           max       average
 MEMORY| MemTotal            263266864     263266864     263266864     263266864
 MEMORY| MemFree             241521500     241521472     241521500     241521495
 MEMORY| Buffers                191424        191424        191424        191424
 MEMORY| Cached                1338308       1338272       1338308       1338303
 MEMORY| Slab                  3296076       3296076       3296076       3296076
 MEMORY| SReclaimable           953516        953516        953516        953516
 MEMORY| MemLikelyFree       244004748     244004684     244004748     244004738


 *******************************************************************************
 *******************************************************************************
 **                                                                           **
 **     #####                         ##              ##                      **
 **    ##   ##            ##          ##              ##                      **
 **   ##     ##                       ##            ######                    **
 **   ##     ##  ##   ##  ##   #####  ##  ##   ####   ##    #####    #####    **
 **   ##     ##  ##   ##  ##  ##      ## ##   ##      ##   ##   ##  ##   ##   **
 **   ##  ## ##  ##   ##  ##  ##      ####     ###    ##   ######   ######    **
 **    ##  ###   ##   ##  ##  ##      ## ##      ##   ##   ##       ##        **
 **     #######   #####   ##   #####  ##  ##  ####    ##    #####   ##        **
 **           ##                                                    ##        **
 **                                                                           **
 **                                                ... make the atoms dance   **
 **                                                                           **
 **            Copyright (C) by CP2K developers group (2000-2021)             **
 **                      J. Chem. Phys. 152, 194103 (2020)                    **
 **                                                                           **
 *******************************************************************************


 TOTAL NUMBERS AND MAXIMUM NUMBERS

  Total number of            - Atomic kinds:                                   3
                             - Atoms:                                         67
                             - Shell sets:                                    70
                             - Shells:                                       338
                             - Primitive Cartesian functions:                341
                             - Cartesian basis functions:                    938
                             - Spherical basis functions:                    872

  Maximum angular momentum of- Orbital basis functions:                        2
                             - Local part of the GTH pseudopotential:          2
                             - Non-local part of the GTH pseudopotential:      0


 SCF PARAMETERS         Density guess:                                   RESTART
                        --------------------------------------------------------
                        max_scf:                                              20
                        max_scf_history:                                       0
                        max_diis:                                              4
                        --------------------------------------------------------
                        eps_scf:                                        5.00E-07
                        eps_scf_history:                                0.00E+00
                        eps_diis:                                       1.00E-01
                        eps_eigval:                                     1.00E-05
                        --------------------------------------------------------
                        level_shift [a.u.]:                                 0.00
                        added MOs                                        20    0
                        --------------------------------------------------------
                        Mixing method:                            BROYDEN_MIXING
                                                charge density mixing in g-space
                        --------------------------------------------------------
                        Smear method:                                FERMI_DIRAC
                        Electronic temperature [K]:                        300.0
                        Electronic temperature [a.u.]:                  9.50E-04
                        Accuracy threshold:                             1.00E-10
                        --------------------------------------------------------
                        Outer loop SCF in use 
                        No variables optimised in outer loop
                        eps_scf                                         5.00E-07
                        max_scf                                               20
                        No outer loop optimization
                        step_size                                       5.00E-01

 Number of electrons:                                                        264
 Number of occupied orbitals:                                                132
 Number of molecular orbitals:                                               152

 Number of orbital functions:                                                872
 Number of independent orbital functions:                                    872

 Extrapolation method: initial_guess

 *** WARNING in qs_initial_guess.F:309 :: User requested to restart the    ***
 *** wavefunction from the file named: MAT-H2O-RESTART.wfn. This file does ***
 *** not exist. Please check the existence of the file or change properly  ***
 *** the value of the keyword WFN_RESTART_FILE_NAME. Calculation continues ***
 *** using ATOMIC GUESS.                                                   ***



 SCF WAVEFUNCTION OPTIMIZATION

  Step     Update method      Time    Convergence         Total energy    Change
  ------------------------------------------------------------------------------
     1 NoMix/Diag. 0.40E+00    0.6     1.20920980      -379.5665607209 -3.80E+02
     2 Broy./Diag. 0.40E+00    0.7     0.33187233      -368.7625675617  1.08E+01
     3 Broy./Diag. 0.40E+00    0.8     0.02164310      -378.4666404287 -9.70E+00
     4 Broy./Diag. 0.40E+00    0.8     0.00978160      -382.3524619111 -3.89E+00
     5 Broy./Diag. 0.40E+00    0.8     0.00351226      -382.5337195140 -1.81E-01
     6 Broy./Diag. 0.40E+00    0.8     0.00112012      -382.2371105677  2.97E-01
     7 Broy./Diag. 0.40E+00    0.8     0.00107156      -382.1971859800  3.99E-02
     8 Broy./Diag. 0.40E+00    0.8     0.00192777      -382.2043953104 -7.21E-03
     9 Broy./Diag. 0.40E+00    0.8     0.00139455      -382.2025883251  1.81E-03
    10 Broy./Diag. 0.40E+00    0.8     0.00044109      -382.2057776600 -3.19E-03
    11 Broy./Diag. 0.40E+00    0.8     0.00076545      -382.2041680099  1.61E-03
    12 Broy./Diag. 0.40E+00    0.8     0.00014303      -382.2049449019 -7.77E-04
    13 Broy./Diag. 0.40E+00    0.8     0.00006907      -382.2055241205 -5.79E-04
    14 Broy./Diag. 0.40E+00    0.8     0.00008031      -382.2050708267  4.53E-04
    15 Broy./Diag. 0.40E+00    0.8     0.00003659      -382.2049772781  9.35E-05
    16 Broy./Diag. 0.40E+00    0.8     0.00001931      -382.2050634588 -8.62E-05
    17 Broy./Diag. 0.40E+00    0.8     0.00000413      -382.2050819454 -1.85E-05
    18 Broy./Diag. 0.40E+00    0.8     0.00000464      -382.2050535998  2.83E-05
    19 Broy./Diag. 0.40E+00    0.8     0.00000089      -382.2050427518  1.08E-05
    20 Broy./Diag. 0.40E+00    0.8     0.00000115      -382.2050428934 -1.42E-07

  Leaving inner SCF loop after reaching    20 steps.


  Electronic density on regular grids:       -264.0000000000        0.0000000000
  Core density on regular grids:              263.9999999998       -0.0000000002
  Total charge density on r-space grids:       -0.0000000002
  Total charge density g-space grids:          -0.0000000002

  Overlap energy of the core charge distribution:               0.00001108883863
  Self energy of the core charge distribution:               -897.78766230971098
  Core Hamiltonian energy:                                    281.09493044106790
  Hartree energy:                                             351.23622311365392
  Exchange-correlation energy:                               -116.57300989746224
  Dispersion energy:                                           -0.17553532974872
  Electronic entropic energy:                                  -0.00000000000000
  Fermi energy:                                                -0.06327640893506

  Total energy:                                              -382.20504289336139

  outer SCF iter =    1 RMS gradient =   0.11E-05 energy =       -382.2050428934
     1 Broy./Diag. 0.40E+00    1.5     0.00000045      -382.2050327587  1.01E-05

  *** SCF run converged in     1 steps ***


  Electronic density on regular grids:       -264.0000000000        0.0000000000
  Core density on regular grids:              263.9999999998       -0.0000000002
  Total charge density on r-space grids:       -0.0000000002
  Total charge density g-space grids:          -0.0000000002

  Overlap energy of the core charge distribution:               0.00001108883863
  Self energy of the core charge distribution:               -897.78766230971098
  Core Hamiltonian energy:                                    281.09493264850499
  Hartree energy:                                             351.23622785317821
  Exchange-correlation energy:                               -116.57300670972687
  Dispersion energy:                                           -0.17553532974872
  Electronic entropic energy:                                  -0.00000000000000
  Fermi energy:                                                -0.06327684369079

  Total energy:                                              -382.20503275866469

  outer SCF iter =    2 RMS gradient =   0.45E-06 energy =       -382.2050327587
  outer SCF loop converged in   2 iterations or   21 steps


 ENERGY| Total FORCE_EVAL ( QS ) energy [a.u.]:             -382.205032758664686

 -------------------------------------------------------------------------------
 -                                                                             -
 -                                DBCSR STATISTICS                             -
 -                                                                             -
 -------------------------------------------------------------------------------
 COUNTER                                    TOTAL       BLAS       SMM       ACC
 flops     9 x    22 x    24               199584     100.0%      0.0%      0.0%
 flops    22 x     9 x    24               199584     100.0%      0.0%      0.0%
 flops     9 x     9 x    24               244944     100.0%      0.0%      0.0%
 flops    22 x    22 x    24               487872     100.0%      0.0%      0.0%
 flops     9 x    22 x    32              1064448     100.0%      0.0%      0.0%
 flops    22 x     9 x    32              1064448     100.0%      0.0%      0.0%
 flops     9 x     9 x    32              1306368     100.0%      0.0%      0.0%
 flops    22 x    22 x    32              2601984     100.0%      0.0%      0.0%
 flops     9 x    13 x    24              7547904     100.0%      0.0%      0.0%
 flops    13 x     9 x    24              7547904     100.0%      0.0%      0.0%
 flops    22 x    13 x    24              9225216     100.0%      0.0%      0.0%
 flops    13 x    22 x    24              9225216     100.0%      0.0%      0.0%
 flops     9 x    13 x    32             40255488     100.0%      0.0%      0.0%
 flops    13 x     9 x    32             40255488     100.0%      0.0%      0.0%
 flops    22 x    13 x    32             49201152     100.0%      0.0%      0.0%
 flops    13 x    22 x    32             49201152     100.0%      0.0%      0.0%
 flops    13 x    13 x    24            354332160     100.0%      0.0%      0.0%
 flops    13 x    13 x    32           1889771520     100.0%      0.0%      0.0%
 flops inhomo. stacks                           0       0.0%      0.0%      0.0%
 flops total                         2.463732E+09     100.0%      0.0%      0.0%
 flops max/rank                     32.200896E+06     100.0%      0.0%      0.0%
 matmuls inhomo. stacks                         0       0.0%      0.0%      0.0%
 matmuls total                             239190     100.0%      0.0%      0.0%
 number of processed stacks                 21525     100.0%      0.0%      0.0%
 average stack size                                    11.1       0.0       0.0
 marketing flops                     4.215569E+09
 -------------------------------------------------------------------------------
 # multiplications                             21
 max memory usage/rank             339.996672E+06
 # max total images/rank                        2
 # max 3D layers                                1
 # MPI messages exchanged                   77952
 MPI messages size (bytes):
  total size                       489.882624E+06
  min size                           0.000000E+00
  max size                          29.952000E+03
  average size                       6.284414E+03
 MPI breakdown and total messages size (bytes):
             size <=      128               53592                        0
       128 < size <=     8192                   0                        0
      8192 < size <=    32768               24360                489882624
     32768 < size <=   131072                   0                        0
    131072 < size <=  4194304                   0                        0
   4194304 < size <= 16777216                   0                        0
  16777216 < size                               0                        0
 -------------------------------------------------------------------------------

 *** WARNING in dbcsr_mm.F:294 :: Using a non-square number of MPI ranks ***
 *** might lead to poor performance. Used ranks: 128 Suggested: 121 256  ***

 -------------------------------------------------------------------------------
 -                                                                             -
 -                      DBCSR MESSAGE PASSING PERFORMANCE                      -
 -                                                                             -
 -------------------------------------------------------------------------------
 ROUTINE             CALLS      AVE VOLUME [Bytes]
 MP_Bcast               19                     12.
 MP_Allreduce          203                     12.
 MP_Alltoall           600                  51903.
 MP_ISend             1344                   3590.
 MP_IRecv             1344                   2683.
 -------------------------------------------------------------------------------

 -------------------------------------------------------------------------------
 -                                                                             -
 -                                GRID STATISTICS                              -
 -                                                                             -
 -------------------------------------------------------------------------------
 LP    KERNEL             BACKEND                              COUNT     PERCENT
 4     collocate ortho    REF                                1056528      47.21%
 4     integrate ortho    REF                                1008504      45.07%
 2     collocate ortho    REF                                  43582       1.95%
 2     integrate ortho    REF                                  41601       1.86%
 3     collocate ortho    REF                                  36124       1.61%
 3     integrate ortho    REF                                  34482       1.54%
 0     collocate general  REF                                   8576       0.38%
 1     collocate ortho    REF                                   2508       0.11%
 1     integrate ortho    REF                                   2394       0.11%
 0     collocate ortho    REF                                   1760       0.08%
 0     integrate ortho    REF                                   1680       0.08%
 -------------------------------------------------------------------------------

 MEMORY| Estimated peak process memory [MiB]                                 325

 -------------------------------------------------------------------------------
 -                                                                             -
 -                         MESSAGE PASSING PERFORMANCE                         -
 -                                                                             -
 -------------------------------------------------------------------------------

 ROUTINE             CALLS      AVE VOLUME [Bytes]
 MP_Group                5
 MP_Bcast              176                3693879.
 MP_Allreduce          603                   1631.
 MP_Sync                47
 MP_Alltoall           337                3341529.
 MP_SendRecv           252                 409600.
 MP_ISendRecv        16383                  24960.
 MP_Wait             18645
 MP_comm_split          21
 MP_ISend             1914                 366252.
 MP_IRecv             1914                 366366.
 MP_Recv                15                  69760.
 -------------------------------------------------------------------------------


 -------------------------------------------------------------------------------
 -                                                                             -
 -                           R E F E R E N C E S                               -
 -                                                                             -
 -------------------------------------------------------------------------------
 
 CP2K version 9.1, the CP2K developers group (2021).
 CP2K is freely available from https://www.cp2k.org/ .

 Kuehne,Thomas D.; Iannuzzi,Marcella; Del Ben,Mauro;
 Rybkin,Vladimir V.; Seewald,Patrick; Stein,Frederick; Laino,Teodoro;
 Khaliullin,Rustam Z.; Schuett,Ole; Schiffmann,Florian; Golze,Dorothea;
 Wilhelm,Jan; Chulkov,Sergey; Bani-Hashemian,Mohammad Hossein;
 Weber,Valery; Borstnik,Urban; Taillefumier,Mathieu;
 Jakobovits,Alice Shoshana; Lazzaro,Alfio; Pabst,Hans; Mueller,Tiziano;
 Schade,Robert; Guidon,Manuel; Andermatt,Samuel; Holmberg,Nico;
 Schenter,Gregory K.; Hehn,Anna; Bussy,Augustin; Belleflamme,Fabian;
 Tabacchi,Gloria; Gloess,Andreas; Lass,Michael; Bethune,Iain;
 Mundy,Christopher J.; Plessl,Christian; Watkins,Matt;
 VandeVondele,Joost; Krack,Matthias; Hutter,Juerg. 
 The Journal of Chemical Physics, 152 (19), (2020). 
 CP2K: An electronic structure and molecular dynamics software package -
 Quickstep: Efficient and accurate electronic structure calculations.
 https://doi.org/10.1063/5.0007045

 Goerigk, Lars; Hansen, Andreas; Bauer, Christoph; Ehrlich, Stephan;
 Najibi, Asim; Grimme, Stefan. , 19 (48), (2017). 
 A look at the density functional theory zoo with the advanced GMTKN55 database
 for general main group thermochemistry, kinetics and noncovalent interactions.
 https://doi.org/10.1039/C7CP04913G

 Schuett, Ole; Messmer, Peter; Hutter, Juerg; VandeVondele, Joost. 
 Electronic Structure Calculations on Graphics Processing Units, John
 Wiley & Sons, Ltd, 173-190 (2016). 
 GPU-Accelerated Sparse Matrix-Matrix Multiplication for
 Linear Scaling Density Functional Theory.
 https://doi.org/10.1002/9781118670712.ch8

 Borstnik, U; VandeVondele, J; Weber, V; Hutter, J. 
 PARALLEL COMPUTING, 40 (5-6), 47-58 (2014). 
 Sparse matrix multiplication: The distributed block-compressed sparse
 row library.
 https://doi.org/10.1016/j.parco.2014.03.012

 Hutter, J; Iannuzzi, M; Schiffmann, F; VandeVondele, J. 
 WIREs Comput Mol Sci., 4 (1), 15-25 (2014). 
 CP2K: atomistic simulations of condensed matter systems.
 https://doi.org/10.1002/wcms.1159

 Marek, A; Blum, V; Johanni, R; Havu, V; Lang, B; Auckenthaler, T;
 Heinecke, A; Bungartz, H; Lederer, H. 
 Journal of Physics: Condensed Matter, 26 (21), (2014). 
 The ELPA library: scalable parallel eigenvalue solutions for
 electronic structure
 theory and computational science.
 https://doi.org/10.1088/0953-8984/26/21/213201

 Grimme, S; Ehrlich, S; Goerigk, L. 
 JOURNAL OF COMPUTATIONAL CHEMISTRY, 32, 1456 (2011). 
 Effect of the damping function in dispersion corrected density functional theory.
 https://doi.org/10.1002/jcc.21759

 Grimme, S; Antony, J; Ehrlich, S; Krieg, H. 
 JOURNAL OF CHEMICAL PHYSICS, 132 (15), 154104 (2010). 
 A consistent and accurate ab initio parametrization of density
 functional dispersion correction (DFT-D) for the 94 elements H-Pu.
 https://doi.org/10.1063/1.3382344

 VandeVondele, J; Hutter, J. 
 JOURNAL OF CHEMICAL PHYSICS, 127 (11), 114105 (2007). 
 Gaussian basis sets for accurate calculations on molecular systems in
 gas and condensed phases.
 https://doi.org/10.1063/1.2770708

 Krack, M. 
 THEORETICAL CHEMISTRY ACCOUNTS, 114 (1-3), 145-152 (2005). 
 Pseudopotentials for H to Kr optimized for gradient-corrected
 exchange-correlation functionals.
 https://doi.org/10.1007/s00214-005-0655-y

 VandeVondele, J; Krack, M; Mohamed, F; Parrinello, M; Chassaing, T;
 Hutter, J. COMPUTER PHYSICS COMMUNICATIONS, 167 (2), 103-128 (2005). 
 QUICKSTEP: Fast and accurate density functional calculations using a
 mixed Gaussian and plane waves approach.
 https://doi.org/10.1016/j.cpc.2004.12.014

 Frigo, M; Johnson, SG. 
 PROCEEDINGS OF THE IEEE, 93 (2), 216-231 (2005). 
 The design and implementation of FFTW3.
 https://doi.org/10.1109/JPROC.2004.840301

 Hartwigsen, C; Goedecker, S; Hutter, J. 
 PHYSICAL REVIEW B, 58 (7), 3641-3662 (1998). 
 Relativistic separable dual-space Gaussian pseudopotentials from H to Rn.
 https://doi.org/10.1103/PhysRevB.58.3641

 Zhang, YK; Yang, WT. 
 PHYSICAL REVIEW LETTERS, 80 (4), 890-890 (1998). 
 Comment on Generalized gradient approximation made simple.
 https://doi.org/10.1103/PhysRevLett.80.890

 Lippert, G; Hutter, J; Parrinello, M. 
 MOLECULAR PHYSICS, 92 (3), 477-487 (1997). 
 A hybrid Gaussian and plane wave density functional scheme.
 https://doi.org/10.1080/002689797170220

 Perdew, JP; Burke, K; Ernzerhof, M. 
 PHYSICAL REVIEW LETTERS, 77 (18), 3865-3868 (1996). 
 Generalized gradient approximation made simple.
 https://doi.org/10.1103/PhysRevLett.77.3865

 Goedecker, S; Teter, M; Hutter, J. 
 PHYSICAL REVIEW B, 54 (3), 1703-1710 (1996). 
 Separable dual-space Gaussian pseudopotentials.
 https://doi.org/10.1103/PhysRevB.54.1703


 -------------------------------------------------------------------------------
 -                                                                             -
 -                                T I M I N G                                  -
 -                                                                             -
 -------------------------------------------------------------------------------
 SUBROUTINE                       CALLS  ASD         SELF TIME        TOTAL TIME
                                MAXIMUM       AVERAGE  MAXIMUM  AVERAGE  MAXIMUM
 CP2K                                 1  1.0    0.112    0.126   18.180   18.184
 qs_energies                          1  2.0    0.006    0.010   17.541   17.551
 scf_env_do_scf                       1  3.0    0.003    0.005   16.652   16.659
 scf_env_do_scf_inner_loop           21  4.0    0.008    0.011   16.649   16.657
 qs_ks_update_qs_env                 21  5.0    0.001    0.001    7.248    7.256
 rebuild_ks_matrix                   21  6.0    0.002    0.003    7.243    7.249
 qs_ks_build_kohn_sham_matrix        21  7.0    0.011    0.018    7.241    7.246
 rs_pw_transfer                     216  9.4    0.004    0.006    5.149    5.306
 qs_rho_update_rho                   22  5.0    0.000    0.002    5.199    5.203
 calculate_rho_elec                  22  6.0    0.020    0.021    5.198    5.203
 density_rs2pw                       22  7.0    0.004    0.005    3.916    4.076
 sum_up_and_integrate                21  8.0    0.022    0.035    3.797    3.805
 integrate_v_rspace                  21  9.0    0.001    0.002    3.775    3.788
 pw_transfer                        320  9.0    0.061    0.071    3.420    3.611
 fft_wrap_pw1pw2                    278 10.0    0.003    0.005    3.278    3.464
 potential_pw2rs                     21 10.0    0.003    0.003    3.437    3.448
 fft_wrap_pw1pw2_530                106 10.2    0.285    0.334    3.004    3.168
 fft3d_ps                           278 12.0    1.374    1.512    2.523    2.719
 qs_vxc_create                       21  8.0    0.003    0.006    2.368    2.446
 xc_vxc_pw_create                    21  9.0    0.062    0.075    2.364    2.444
 qs_scf_new_mos                      21  5.0    0.003    0.004    2.270    2.285
 gspace_mixing                       19  5.0    0.017    0.020    2.207    2.210
 eigensolver                         21  6.0    0.003    0.005    2.108    2.110
 cp_fm_diag_elpa                     21  7.0    0.000    0.000    1.880    1.888
 cp_fm_redistribute_end              21  8.0    1.621    1.855    1.623    1.855
 rs_pw_transfer_RS2PW_530            23  8.9    1.047    1.175    1.711    1.852
 cp_fm_diag_elpa_base                21  8.0    0.226    1.817    0.230    1.838
 xc_rho_set_and_dset_create          21 10.0    0.038    0.056    1.649    1.829
 rs_pw_transfer_PW2RS_530            21 12.0    1.105    1.152    1.718    1.762
 mp_waitany                        1914 11.4    1.292    1.668    1.292    1.668
 broyden_mixing                      19  6.0    1.601    1.632    1.637    1.652
 pw_nn_compose_r                    126 10.5    0.674    0.712    0.981    1.464
 grid_collocate_task_list            22  7.0    1.203    1.297    1.203    1.297
 xc_functional_eval                  21 11.0    0.000    0.001    1.027    1.198
 pbe_lda_eval                        21 12.0    1.027    1.198    1.027    1.198
 mp_alltoall_z22v                   278 14.0    0.862    1.135    0.862    1.135
 mp_sendrecv_dm2                    252 11.5    0.307    0.842    0.307    0.842
 mp_waitall_1                     19083 11.5    0.686    0.791    0.686    0.791
 yz_to_x                            132 12.5    0.105    0.145    0.517    0.691
 x_to_yz                            146 13.5    0.172    0.206    0.622    0.689
 mp_sum_d                           587  3.4    0.293    0.595    0.293    0.595
 init_scf_run                         1  3.0    0.002    0.003    0.582    0.585
 rs_pw_transfer_PW2RS_180            21 12.0    0.192    0.216    0.422    0.485
 scf_env_initial_rho_setup            1  4.0    0.003    0.006    0.403    0.405
 rs_pw_transfer_PW2RS_60             21 12.0    0.109    0.163    0.347    0.374
 pw_poisson_solve                    21  8.0    0.144    0.156    0.369    0.372
 -------------------------------------------------------------------------------

 The number of warnings for this run is : 2
 
 -------------------------------------------------------------------------------
  **** **** ******  **  PROGRAM ENDED AT                 2025-10-22 11:38:11.029
 ***** ** ***  *** **   PROGRAM RAN ON                                 nid004056
 **    ****   ******    PROGRAM RAN BY                                xr223_ukcp
 ***** **    ** ** **   PROGRAM PROCESS ID                                130325
  **** **  *******  **  PROGRAM STOPPED IN /mnt/lustre/a2fs-work3/work/e89/e89/x
                                           r223_ukcp/BINDING-ENERGY-DARREN/bindi
                                           ng-energy/1-leg/s+0.00/d+4.00
 DBCSR| CPU Multiplication driver                                           BLAS
 DBCSR| Multrec recursion limit                                              512
 DBCSR| Multiplication stack size                                           1000
 DBCSR| Maximum elements for images                                    UNLIMITED
 DBCSR| Multiplicative factor virtual images                                   1
 DBCSR| Use multiplication densification                                       T
 DBCSR| Multiplication size stacks                                             3
 DBCSR| Use memory pool for CPU allocation                                     F
 DBCSR| Number of 3D layers                                               SINGLE
 DBCSR| Use MPI memory allocation                                              F
 DBCSR| Use RMA algorithm                                                      F
 DBCSR| Use Communication thread                                               T
 DBCSR| Communication thread load                                             87
 DBCSR| MPI: My node id                                                        0
 DBCSR| MPI: Number of nodes                                                 128
 DBCSR| OMP: Current number of threads                                         1
 DBCSR| OMP: Max number of threads                                             1
 DBCSR| Split modifier for TAS multiplication algorithm                  1.0E+00


  **** **** ******  **  PROGRAM STARTED AT               2025-10-22 11:38:31.874
 ***** ** ***  *** **   PROGRAM STARTED ON                             nid001136
 **    ****   ******    PROGRAM STARTED BY                            xr223_ukcp
 ***** **    ** ** **   PROGRAM PROCESS ID                                 51038
  **** **  *******  **  PROGRAM STARTED IN /mnt/lustre/a2fs-work3/work/e89/e89/x
                                           r223_ukcp/BINDING-ENERGY-DARREN/bindi
                                           ng-energy/1-leg/s+0.00/d+4.00

 CP2K| version string:                                          CP2K version 9.1
 CP2K| source code revision number:                                  git:d8d7100
 CP2K| cp2kflags: omp libint fftw3 libxc elpa parallel mpi3 scalapack plumed2 mk
 CP2K|            l
 CP2K| is freely available from                            https://www.cp2k.org/
 CP2K| Program compiled at                       Thu 08 Jun 2023 08:54:13 AM BST
 CP2K| Program compiled on                                                  ln03
 CP2K| Program compiled for                                              ARCHER2
 CP2K| Data directory path       /work/y07/shared/apps/core/cp2k/cp2k-9.1.0/data
 CP2K| Input file name                                              cp2k_sub.inp

 GLOBAL| Force Environment number                                              1
 GLOBAL| Basis set file name                                      GTH_BASIS_SETS
 GLOBAL| Potential file name                                           POTENTIAL
 GLOBAL| MM Potential file name                                     MM_POTENTIAL
 GLOBAL| Coordinate file name                                           init.pdb
 GLOBAL| Method name                                                        CP2K
 GLOBAL| Project name                                                    MAT-H2O
 GLOBAL| Run type                                                         ENERGY
 GLOBAL| FFT library                                                       FFTW3
 GLOBAL| Diagonalization library                                            ELPA
 GLOBAL| Minimum number of eigenvectors for ELPA usage                        16
 GLOBAL| Orthonormality check for eigenvectors                          DISABLED
 GLOBAL| Matrix multiplication library                                 ScaLAPACK
 GLOBAL| All-to-all communication in single precision                          F
 GLOBAL| FFTs using library dependent lengths                                  F
 GLOBAL| Grid backend                                                       AUTO
 GLOBAL| Global print level                                                  LOW
 GLOBAL| MPI I/O enabled                                                       T
 GLOBAL| Total number of message passing processes                           128
 GLOBAL| Number of threads for this process                                    1
 GLOBAL| This output is from process                                           0
 GLOBAL| Stack size for threads created by OpenMP (OMP_STACKSIZE)        default
 GLOBAL| CPU model name                          AMD EPYC 7742 64-Core Processor
 GLOBAL| CPUID                                                              1002

 MEMORY| system memory details [Kb]
 MEMORY|                        rank 0           min           max       average
 MEMORY| MemTotal            263266892     263266892     263266892     263266892
 MEMORY| MemFree             241232384     241232384     241232384     241232384
 MEMORY| Buffers                179616        179616        179616        179616
 MEMORY| Cached                1341628       1341628       1341628       1341628
 MEMORY| Slab                  3468400       3468400       3468400       3468400
 MEMORY| SReclaimable           989528        989528        989528        989528
 MEMORY| MemLikelyFree       243743156     243743156     243743156     243743156


 *******************************************************************************
 *******************************************************************************
 **                                                                           **
 **     #####                         ##              ##                      **
 **    ##   ##            ##          ##              ##                      **
 **   ##     ##                       ##            ######                    **
 **   ##     ##  ##   ##  ##   #####  ##  ##   ####   ##    #####    #####    **
 **   ##     ##  ##   ##  ##  ##      ## ##   ##      ##   ##   ##  ##   ##   **
 **   ##  ## ##  ##   ##  ##  ##      ####     ###    ##   ######   ######    **
 **    ##  ###   ##   ##  ##  ##      ## ##      ##   ##   ##       ##        **
 **     #######   #####   ##   #####  ##  ##  ####    ##    #####   ##        **
 **           ##                                                    ##        **
 **                                                                           **
 **                                                ... make the atoms dance   **
 **                                                                           **
 **            Copyright (C) by CP2K developers group (2000-2021)             **
 **                      J. Chem. Phys. 152, 194103 (2020)                    **
 **                                                                           **
 *******************************************************************************


 TOTAL NUMBERS AND MAXIMUM NUMBERS

  Total number of            - Atomic kinds:                                   3
                             - Atoms:                                         67
                             - Shell sets:                                    70
                             - Shells:                                       338
                             - Primitive Cartesian functions:                341
                             - Cartesian basis functions:                    938
                             - Spherical basis functions:                    872

  Maximum angular momentum of- Orbital basis functions:                        2
                             - Local part of the GTH pseudopotential:          2
                             - Non-local part of the GTH pseudopotential:      0


 SCF PARAMETERS         Density guess:                                   RESTART
                        --------------------------------------------------------
                        max_scf:                                              20
                        max_scf_history:                                       0
                        max_diis:                                              4
                        --------------------------------------------------------
                        eps_scf:                                        5.00E-07
                        eps_scf_history:                                0.00E+00
                        eps_diis:                                       1.00E-01
                        eps_eigval:                                     1.00E-05
                        --------------------------------------------------------
                        level_shift [a.u.]:                                 0.00
                        added MOs                                        20    0
                        --------------------------------------------------------
                        Mixing method:                            BROYDEN_MIXING
                                                charge density mixing in g-space
                        --------------------------------------------------------
                        Smear method:                                FERMI_DIRAC
                        Electronic temperature [K]:                        300.0
                        Electronic temperature [a.u.]:                  9.50E-04
                        Accuracy threshold:                             1.00E-10
                        --------------------------------------------------------
                        Outer loop SCF in use 
                        No variables optimised in outer loop
                        eps_scf                                         5.00E-07
                        max_scf                                               20
                        No outer loop optimization
                        step_size                                       5.00E-01

 Number of electrons:                                                        264
 Number of occupied orbitals:                                                132
 Number of molecular orbitals:                                               152

 Number of orbital functions:                                                872
 Number of independent orbital functions:                                    872

 Extrapolation method: initial_guess


 SCF WAVEFUNCTION OPTIMIZATION

  Step     Update method      Time    Convergence         Total energy    Change
  ------------------------------------------------------------------------------
     1 NoMix/Diag. 0.40E+00    0.5     0.00000116      -382.2050327587 -3.82E+02
     2 Broy./Diag. 0.40E+00    0.7     0.00000056      -382.2050349197 -2.16E-06
     3 Broy./Diag. 0.40E+00    0.7     0.00000027      -382.2050334689  1.45E-06

  *** SCF run converged in     3 steps ***


  Electronic density on regular grids:       -264.0000000000        0.0000000000
  Core density on regular grids:              263.9999999998       -0.0000000002
  Total charge density on r-space grids:       -0.0000000002
  Total charge density g-space grids:          -0.0000000002

  Overlap energy of the core charge distribution:               0.00001108883863
  Self energy of the core charge distribution:               -897.78766230971098
  Core Hamiltonian energy:                                    281.09493693955460
  Hartree energy:                                             351.23622375588809
  Exchange-correlation energy:                               -116.57300761376189
  Dispersion energy:                                           -0.17553532974872
  Electronic entropic energy:                                  -0.00000000000000
  Fermi energy:                                                -0.06327681793097

  Total energy:                                              -382.20503346894026

  outer SCF iter =    1 RMS gradient =   0.27E-06 energy =       -382.2050334689
  outer SCF loop converged in   1 iterations or    3 steps


 ENERGY| Total FORCE_EVAL ( QS ) energy [a.u.]:             -382.205033468940258

 -------------------------------------------------------------------------------
 -                                                                             -
 -                                DBCSR STATISTICS                             -
 -                                                                             -
 -------------------------------------------------------------------------------
 COUNTER                                    TOTAL       BLAS       SMM       ACC
 flops     9 x    24 x     9                15552     100.0%      0.0%      0.0%
 flops     9 x    24 x    22                19008     100.0%      0.0%      0.0%
 flops    22 x    24 x     9                19008     100.0%      0.0%      0.0%
 flops    22 x    24 x    22                23232     100.0%      0.0%      0.0%
 flops     9 x    22 x    24                38016     100.0%      0.0%      0.0%
 flops    22 x     9 x    24                38016     100.0%      0.0%      0.0%
 flops     9 x     9 x    24                46656     100.0%      0.0%      0.0%
 flops     9 x    32 x     9                82944     100.0%      0.0%      0.0%
 flops    22 x    22 x    24                92928     100.0%      0.0%      0.0%
 flops    22 x    32 x     9               101376     100.0%      0.0%      0.0%
 flops     9 x    32 x    22               101376     100.0%      0.0%      0.0%
 flops    22 x    32 x    22               123904     100.0%      0.0%      0.0%
 flops     9 x    22 x    32               202752     100.0%      0.0%      0.0%
 flops    22 x     9 x    32               202752     100.0%      0.0%      0.0%
 flops     9 x     9 x    32               248832     100.0%      0.0%      0.0%
 flops    22 x    22 x    32               495616     100.0%      0.0%      0.0%
 flops     9 x    24 x    13               718848     100.0%      0.0%      0.0%
 flops    13 x    24 x     9               718848     100.0%      0.0%      0.0%
 flops    13 x    24 x    22               878592     100.0%      0.0%      0.0%
 flops    22 x    24 x    13               878592     100.0%      0.0%      0.0%
 flops     9 x    13 x    24              1437696     100.0%      0.0%      0.0%
 flops    13 x     9 x    24              1437696     100.0%      0.0%      0.0%
 flops    22 x    13 x    24              1757184     100.0%      0.0%      0.0%
 flops    13 x    22 x    24              1757184     100.0%      0.0%      0.0%
 flops    13 x    32 x     9              3833856     100.0%      0.0%      0.0%
 flops     9 x    32 x    13              3833856     100.0%      0.0%      0.0%
 flops    22 x    32 x    13              4685824     100.0%      0.0%      0.0%
 flops    13 x    32 x    22              4685824     100.0%      0.0%      0.0%
 flops     9 x    13 x    32              7667712     100.0%      0.0%      0.0%
 flops    13 x     9 x    32              7667712     100.0%      0.0%      0.0%
 flops    22 x    13 x    32              9371648     100.0%      0.0%      0.0%
 flops    13 x    22 x    32              9371648     100.0%      0.0%      0.0%
 flops    13 x    24 x    13             33226752     100.0%      0.0%      0.0%
 flops    13 x    13 x    24             67491840     100.0%      0.0%      0.0%
 flops    13 x    32 x    13            177209344     100.0%      0.0%      0.0%
 flops    13 x    13 x    32            359956480     100.0%      0.0%      0.0%
 flops inhomo. stacks                           0       0.0%      0.0%      0.0%
 flops total                       700.439104E+06     100.0%      0.0%      0.0%
 flops max/rank                     12.663040E+06     100.0%      0.0%      0.0%
 matmuls inhomo. stacks                         0       0.0%      0.0%      0.0%
 matmuls total                              68005     100.0%      0.0%      0.0%
 number of processed stacks                  5145     100.0%      0.0%      0.0%
 average stack size                                    13.2       0.0       0.0
 marketing flops                     1.034122E+09
 -------------------------------------------------------------------------------
 # multiplications                              5
 max memory usage/rank             305.889280E+06
 # max total images/rank                        2
 # max 3D layers                                1
 # MPI messages exchanged                   18560
 MPI messages size (bytes):
  total size                       191.979520E+06
  min size                           0.000000E+00
  max size                          60.840000E+03
  average size                      10.343725E+03
 MPI breakdown and total messages size (bytes):
             size <=      128               11440                        0
       128 < size <=     8192                   0                        0
      8192 < size <=    32768                5200                100733440
     32768 < size <=   131072                1920                 91246080
    131072 < size <=  4194304                   0                        0
   4194304 < size <= 16777216                   0                        0
  16777216 < size                               0                        0
 -------------------------------------------------------------------------------

 *** WARNING in dbcsr_mm.F:294 :: Using a non-square number of MPI ranks ***
 *** might lead to poor performance. Used ranks: 128 Suggested: 121 256  ***

 -------------------------------------------------------------------------------
 -                                                                             -
 -                      DBCSR MESSAGE PASSING PERFORMANCE                      -
 -                                                                             -
 -------------------------------------------------------------------------------
 ROUTINE             CALLS      AVE VOLUME [Bytes]
 MP_Bcast               37                     12.
 MP_Allreduce          120                     21.
 MP_Alltoall           133                  50888.
 MP_ISend              320                   5897.
 MP_IRecv              320                   5177.
 -------------------------------------------------------------------------------

 -------------------------------------------------------------------------------
 -                                                                             -
 -                                GRID STATISTICS                              -
 -                                                                             -
 -------------------------------------------------------------------------------
 LP    KERNEL             BACKEND                              COUNT     PERCENT
 4     collocate ortho    REF                                 192096      51.71%
 4     integrate ortho    REF                                 144072      38.79%
 0     collocate general  REF                                   8576       2.31%
 2     collocate ortho    REF                                   7924       2.13%
 3     collocate ortho    REF                                   6568       1.77%
 2     integrate ortho    REF                                   5943       1.60%
 3     integrate ortho    REF                                   4926       1.33%
 1     collocate ortho    REF                                    456       0.12%
 1     integrate ortho    REF                                    342       0.09%
 0     collocate ortho    REF                                    320       0.09%
 0     integrate ortho    REF                                    240       0.06%
 -------------------------------------------------------------------------------

 MEMORY| Estimated peak process memory [MiB]                                 294

 -------------------------------------------------------------------------------
 -                                                                             -
 -                         MESSAGE PASSING PERFORMANCE                         -
 -                                                                             -
 -------------------------------------------------------------------------------

 ROUTINE             CALLS      AVE VOLUME [Bytes]
 MP_Group                5
 MP_Bcast              285                2284788.
 MP_Allreduce          362                   2688.
 MP_Sync                13
 MP_Alltoall            68                2663005.
 MP_SendRecv            36                 409600.
 MP_ISendRecv         2667                  24960.
 MP_Wait              3057
 MP_comm_split           4
 MP_ISend              330                 376275.
 MP_IRecv              330                 376941.
 MP_Recv                15                  69760.
 -------------------------------------------------------------------------------


 -------------------------------------------------------------------------------
 -                                                                             -
 -                           R E F E R E N C E S                               -
 -                                                                             -
 -------------------------------------------------------------------------------
 
 CP2K version 9.1, the CP2K developers group (2021).
 CP2K is freely available from https://www.cp2k.org/ .

 Kuehne,Thomas D.; Iannuzzi,Marcella; Del Ben,Mauro;
 Rybkin,Vladimir V.; Seewald,Patrick; Stein,Frederick; Laino,Teodoro;
 Khaliullin,Rustam Z.; Schuett,Ole; Schiffmann,Florian; Golze,Dorothea;
 Wilhelm,Jan; Chulkov,Sergey; Bani-Hashemian,Mohammad Hossein;
 Weber,Valery; Borstnik,Urban; Taillefumier,Mathieu;
 Jakobovits,Alice Shoshana; Lazzaro,Alfio; Pabst,Hans; Mueller,Tiziano;
 Schade,Robert; Guidon,Manuel; Andermatt,Samuel; Holmberg,Nico;
 Schenter,Gregory K.; Hehn,Anna; Bussy,Augustin; Belleflamme,Fabian;
 Tabacchi,Gloria; Gloess,Andreas; Lass,Michael; Bethune,Iain;
 Mundy,Christopher J.; Plessl,Christian; Watkins,Matt;
 VandeVondele,Joost; Krack,Matthias; Hutter,Juerg. 
 The Journal of Chemical Physics, 152 (19), (2020). 
 CP2K: An electronic structure and molecular dynamics software package -
 Quickstep: Efficient and accurate electronic structure calculations.
 https://doi.org/10.1063/5.0007045

 Goerigk, Lars; Hansen, Andreas; Bauer, Christoph; Ehrlich, Stephan;
 Najibi, Asim; Grimme, Stefan. , 19 (48), (2017). 
 A look at the density functional theory zoo with the advanced GMTKN55 database
 for general main group thermochemistry, kinetics and noncovalent interactions.
 https://doi.org/10.1039/C7CP04913G

 Schuett, Ole; Messmer, Peter; Hutter, Juerg; VandeVondele, Joost. 
 Electronic Structure Calculations on Graphics Processing Units, John
 Wiley & Sons, Ltd, 173-190 (2016). 
 GPU-Accelerated Sparse Matrix-Matrix Multiplication for
 Linear Scaling Density Functional Theory.
 https://doi.org/10.1002/9781118670712.ch8

 Borstnik, U; VandeVondele, J; Weber, V; Hutter, J. 
 PARALLEL COMPUTING, 40 (5-6), 47-58 (2014). 
 Sparse matrix multiplication: The distributed block-compressed sparse
 row library.
 https://doi.org/10.1016/j.parco.2014.03.012

 Hutter, J; Iannuzzi, M; Schiffmann, F; VandeVondele, J. 
 WIREs Comput Mol Sci., 4 (1), 15-25 (2014). 
 CP2K: atomistic simulations of condensed matter systems.
 https://doi.org/10.1002/wcms.1159

 Marek, A; Blum, V; Johanni, R; Havu, V; Lang, B; Auckenthaler, T;
 Heinecke, A; Bungartz, H; Lederer, H. 
 Journal of Physics: Condensed Matter, 26 (21), (2014). 
 The ELPA library: scalable parallel eigenvalue solutions for
 electronic structure
 theory and computational science.
 https://doi.org/10.1088/0953-8984/26/21/213201

 Grimme, S; Ehrlich, S; Goerigk, L. 
 JOURNAL OF COMPUTATIONAL CHEMISTRY, 32, 1456 (2011). 
 Effect of the damping function in dispersion corrected density functional theory.
 https://doi.org/10.1002/jcc.21759

 Grimme, S; Antony, J; Ehrlich, S; Krieg, H. 
 JOURNAL OF CHEMICAL PHYSICS, 132 (15), 154104 (2010). 
 A consistent and accurate ab initio parametrization of density
 functional dispersion correction (DFT-D) for the 94 elements H-Pu.
 https://doi.org/10.1063/1.3382344

 VandeVondele, J; Hutter, J. 
 JOURNAL OF CHEMICAL PHYSICS, 127 (11), 114105 (2007). 
 Gaussian basis sets for accurate calculations on molecular systems in
 gas and condensed phases.
 https://doi.org/10.1063/1.2770708

 Krack, M. 
 THEORETICAL CHEMISTRY ACCOUNTS, 114 (1-3), 145-152 (2005). 
 Pseudopotentials for H to Kr optimized for gradient-corrected
 exchange-correlation functionals.
 https://doi.org/10.1007/s00214-005-0655-y

 VandeVondele, J; Krack, M; Mohamed, F; Parrinello, M; Chassaing, T;
 Hutter, J. COMPUTER PHYSICS COMMUNICATIONS, 167 (2), 103-128 (2005). 
 QUICKSTEP: Fast and accurate density functional calculations using a
 mixed Gaussian and plane waves approach.
 https://doi.org/10.1016/j.cpc.2004.12.014

 Frigo, M; Johnson, SG. 
 PROCEEDINGS OF THE IEEE, 93 (2), 216-231 (2005). 
 The design and implementation of FFTW3.
 https://doi.org/10.1109/JPROC.2004.840301

 Hartwigsen, C; Goedecker, S; Hutter, J. 
 PHYSICAL REVIEW B, 58 (7), 3641-3662 (1998). 
 Relativistic separable dual-space Gaussian pseudopotentials from H to Rn.
 https://doi.org/10.1103/PhysRevB.58.3641

 Zhang, YK; Yang, WT. 
 PHYSICAL REVIEW LETTERS, 80 (4), 890-890 (1998). 
 Comment on Generalized gradient approximation made simple.
 https://doi.org/10.1103/PhysRevLett.80.890

 Lippert, G; Hutter, J; Parrinello, M. 
 MOLECULAR PHYSICS, 92 (3), 477-487 (1997). 
 A hybrid Gaussian and plane wave density functional scheme.
 https://doi.org/10.1080/002689797170220

 Perdew, JP; Burke, K; Ernzerhof, M. 
 PHYSICAL REVIEW LETTERS, 77 (18), 3865-3868 (1996). 
 Generalized gradient approximation made simple.
 https://doi.org/10.1103/PhysRevLett.77.3865

 Goedecker, S; Teter, M; Hutter, J. 
 PHYSICAL REVIEW B, 54 (3), 1703-1710 (1996). 
 Separable dual-space Gaussian pseudopotentials.
 https://doi.org/10.1103/PhysRevB.54.1703


 -------------------------------------------------------------------------------
 -                                                                             -
 -                                T I M I N G                                  -
 -                                                                             -
 -------------------------------------------------------------------------------
 SUBROUTINE                       CALLS  ASD         SELF TIME        TOTAL TIME
                                MAXIMUM       AVERAGE  MAXIMUM  AVERAGE  MAXIMUM
 CP2K                                 1  1.0    0.109    0.122    4.023    4.027
 qs_energies                          1  2.0    0.006    0.011    3.254    3.262
 scf_env_do_scf                       1  3.0    0.000    0.002    2.259    2.265
 scf_env_do_scf_inner_loop            3  4.0    0.009    0.011    2.258    2.262
 qs_ks_update_qs_env                  3  5.0    0.000    0.000    1.071    1.076
 rebuild_ks_matrix                    3  6.0    0.003    0.004    1.069    1.071
 qs_ks_build_kohn_sham_matrix         3  7.0    0.006    0.010    1.066    1.070
 rs_pw_transfer                      36  9.2    0.001    0.001    0.993    1.026
 qs_rho_update_rho                    4  5.0    0.000    0.001    0.998    1.001
 calculate_rho_elec                   4  6.0    0.004    0.005    0.997    1.001
 density_rs2pw                        4  7.0    0.003    0.004    0.761    0.788
 init_scf_run                         1  3.0    0.002    0.003    0.689    0.693
 pw_transfer                         51  8.9    0.009    0.011    0.588    0.625
 fft_wrap_pw1pw2                     45  9.9    0.001    0.002    0.567    0.604
 sum_up_and_integrate                 3  8.0    0.005    0.008    0.573    0.577
 integrate_v_rspace                   3  9.0    0.000    0.002    0.569    0.572
 fft_wrap_pw1pw2_530                 17 10.2    0.047    0.056    0.514    0.559
 potential_pw2rs                      3 10.0    0.000    0.000    0.518    0.521
 scf_env_initial_rho_setup            1  4.0    0.003    0.005    0.512    0.514
 fft3d_ps                            45 11.9    0.214    0.236    0.442    0.469
 rs_pw_transfer_RS2PW_530             5  8.6    0.210    0.249    0.430    0.461
 mp_waitany                         330 11.1    0.341    0.425    0.341    0.425
 qs_init_subsys                       1  2.0    0.008    0.014    0.368    0.375
 qs_scf_new_mos                       3  5.0    0.002    0.003    0.353    0.357
 qs_vxc_create                        3  8.0    0.002    0.005    0.330    0.342
 cp_fm_diag_elpa                      4  7.2    0.000    0.001    0.338    0.341
 xc_vxc_pw_create                     3  9.0    0.010    0.012    0.328    0.340
 eigensolver                          3  6.0    0.000    0.002    0.328    0.330
 qs_energies_init_hamiltonians        1  3.0    0.005    0.008    0.289    0.295
 cp_fm_redistribute_end               4  8.2    0.254    0.290    0.254    0.290
 cp_fm_diag_elpa_base                 4  8.1    0.034    0.281    0.035    0.285
 rs_pw_transfer_PW2RS_530             3 12.0    0.141    0.153    0.260    0.272
 xc_rho_set_and_dset_create           3 10.0    0.005    0.009    0.236    0.261
 grid_collocate_task_list             4  7.0    0.220    0.238    0.220    0.238
 qs_env_update_s_mstruct              1  4.0    0.000    0.001    0.217    0.234
 mp_alltoall_z22v                    45 13.9    0.179    0.229    0.179    0.229
 qs_dispersion_pairpot_init           1  3.0    0.010    0.167    0.194    0.220
 pw_nn_compose_r                     18 10.5    0.096    0.105    0.139    0.207
 calculate_rho_core                   1  5.0    0.007    0.011    0.189    0.206
 create_qs_kind_set                   1  2.0    0.000    0.002    0.173    0.186
 read_qs_kind                         3  3.0    0.044    0.061    0.172    0.185
 calculate_first_density_matrix       1  5.0    0.001    0.005    0.176    0.178
 mp_bcast_i                          86  6.0    0.144    0.176    0.144    0.176
 xc_functional_eval                   3 11.0    0.000    0.000    0.150    0.173
 pbe_lda_eval                         3 12.0    0.150    0.173    0.150    0.173
 parser_read_line                  9939  4.0    0.004    0.004    0.144    0.161
 mp_bcast_dv                          7  7.9    0.156    0.159    0.156    0.159
 mp_waitall_1                      3287 11.5    0.131    0.157    0.131    0.157
 parser_read_line_low                15  5.1    0.007    0.096    0.140    0.157
 cp_fm_cholesky_decompose             1  4.0    0.150    0.156    0.150    0.156
 broadcast_input_information         15  6.1    0.000    0.000    0.133    0.151
 qs_env_setup                         1  3.0    0.003    0.006    0.131    0.146
 yz_to_x                             24 12.3    0.019    0.027    0.111    0.146
 x_to_yz                             21 13.5    0.025    0.030    0.112    0.137
 qs_env_rebuild_pw_env                2  3.5    0.001    0.002    0.122    0.135
 pw_env_rebuild                       1  5.0    0.006    0.010    0.120    0.133
 mp_sendrecv_dm2                     36 11.5    0.043    0.118    0.043    0.118
 gspace_mixing                        2  5.0    0.002    0.003    0.113    0.115
 make_basis_lowdin                    1  6.0    0.003    0.004    0.102    0.105
 pw_grid_setup                        5  6.0    0.001    0.002    0.097    0.098
 pw_grid_setup_internal               5  7.0    0.007    0.009    0.096    0.098
 rs_pw_transfer_PW2RS_180             3 12.0    0.021    0.025    0.070    0.089
 rs_pw_transfer_RS2PW_180             4  9.0    0.022    0.025    0.074    0.082
 -------------------------------------------------------------------------------

 The number of warnings for this run is : 1
 
 -------------------------------------------------------------------------------
  **** **** ******  **  PROGRAM ENDED AT                 2025-10-22 11:38:55.121
 ***** ** ***  *** **   PROGRAM RAN ON                                 nid001136
 **    ****   ******    PROGRAM RAN BY                                xr223_ukcp
 ***** **    ** ** **   PROGRAM PROCESS ID                                 51038
  **** **  *******  **  PROGRAM STOPPED IN /mnt/lustre/a2fs-work3/work/e89/e89/x
                                           r223_ukcp/BINDING-ENERGY-DARREN/bindi
                                           ng-energy/1-leg/s+0.00/d+4.00
