LAMMPS (4 Feb 2025)
OMP_NUM_THREADS environment is not set. Defaulting to 1 thread. (src/comm.cpp:99)
  using 1 OpenMP thread(s) per MPI task
# LAMMPS script for running NVT simulation

units       metal
dimension   3
boundary    p p p
atom_style  full
atom_modify map yes

newton      on

read_data   ../start.lammps-data
Reading data file ...
  orthogonal box = (0 0 0) to (153.85399 148.04607 151.07317)
  16 by 8 by 8 MPI processor grid
  reading atoms ...
  11640 atoms
  reading velocities ...
  11640 velocities
Finding 1-2 1-3 1-4 neighbors ...
  special bond factors lj:    0        0        0       
  special bond factors coul:  0        0        0       
     0 = max # of 1-2 neighbors
     0 = max # of 1-3 neighbors
     0 = max # of 1-4 neighbors
     1 = max # of special neighbors
  special bonds CPU = 5.854 seconds
  read_data CPU = 6.034 seconds

pair_style  symmetrix/mace
pair_coeff  * * ../../../00-common/models/ch2o-dens-inv_swa-1-6-8.json C H O
Loading MACE model from '../../../00-common/models/ch2o-dens-inv_swa-1-6-8.json' ... success
  mapping LAMMPS type 1 (C) to MACE type 1
  mapping LAMMPS type 2 (H) to MACE type 0
  mapping LAMMPS type 3 (O) to MACE type 2

variable t equal step

group graphene type 1
8640 atoms in group graphene
group H2O type 2 3
3000 atoms in group H2O

thermo 1000

######### NVT equilibration for 80 ps #############

dump DUMP1 all atom 100 nvt_equi.lammpstrj
timestep 0.001
fix NVT1 graphene nvt temp 300 300 0.1
fix NVT2 H2O nvt temp 300 300 0.1
run 80000
Neighbor list info ...
  update: every = 1 steps, delay = 0 steps, check = yes
  max neighbors/atom: 2000, page size: 100000
  master list distance cutoff = 8
  ghost atom cutoff = 8
  binsize = 4, bins = 39 38 38
  1 neighbor lists, perpetual/occasional/extra = 1 0 0
  (1) pair symmetrix/mace, perpetual
      attributes: full, newton on
      pair build: full/bin
      stencil: full/bin/3d
      bin: standard
Per MPI rank memory allocation (min/avg/max) = 5.921 | 6.239 | 8.661 Mbytes
   Step          Temp          E_pair         E_mol          TotEng         Press     
         0   78.173347     -1810213.7      0             -1810096.1      463.52205    
      1000   84.071059     -1810206.2      0             -1810079.7      307.89675    
      2000   177.90881     -1810098.7      0             -1809831       -756.0908     
      3000   302.73117     -1809968.3      0             -1809512.8     -1066.407     
      4000   299.86574     -1809940.9      0             -1809489.7     -1213.7512    
      5000   306.01282     -1809949.8      0             -1809489.4     -885.31889    
      6000   300.28832     -1809941.3      0             -1809489.6     -901.2533     
      7000   298.26835     -1809938.1      0             -1809489.3     -872.36221    
      8000   292.98283     -1809935.8      0             -1809495       -803.55066    
      9000   297.85004     -1809926.6      0             -1809478.5     -885.14082    
     10000   299.80567     -1809939.6      0             -1809488.5     -709.68253    
     11000   301.29067     -1809939.1      0             -1809485.8     -749.38819    
     12000   301.15784     -1809935.5      0             -1809482.4     -740.35511    
     13000   291.94195     -1809940.3      0             -1809501.1     -687.90187    
     14000   302.36696     -1809919.8      0             -1809464.9     -545.40694    
     15000   300.04548     -1809925.3      0             -1809473.9     -491.23529    
     16000   300.49878     -1809927.2      0             -1809475.1     -559.31314    
     17000   303.59926     -1809933.9      0             -1809477.1     -430.95273    
     18000   301.24938     -1809928.9      0             -1809475.7     -323.74309    
     19000   301.7976      -1809931.7      0             -1809477.6     -326.92396    
     20000   303.15103     -1809929.9      0             -1809473.8     -414.63981    
     21000   294.31213     -1809934.4      0             -1809491.6     -285.49476    
     22000   304.19004     -1809923.1      0             -1809465.4     -275.40959    
     23000   304.03086     -1809930.7      0             -1809473.3     -222.21146    
     24000   296.23204     -1809934.6      0             -1809489       -193.87588    
     25000   300.16771     -1809924.1      0             -1809472.5     -355.22439    
     26000   303.26639     -1809930.1      0             -1809473.8     -208.12093    
     27000   302.41808     -1809934.5      0             -1809479.6     -180.75876    
     28000   298.97755     -1809927.8      0             -1809478       -119.80694    
     29000   298.63455     -1809927.4      0             -1809478.2     -186.48392    
     30000   303.54191     -1809928.6      0             -1809472       -138.06362    
     31000   300.76524     -1809927.4      0             -1809474.9     -169.2009     
     32000   299.36138     -1809933.5      0             -1809483.1     -56.990601    
     33000   302.10122     -1809928.6      0             -1809474.1     -42.59792     
     34000   303.39536     -1809932.2      0             -1809475.7      5.979968     
     35000   296.75461     -1809938.1      0             -1809491.6     -24.766031    
     36000   296.99849     -1809934.1      0             -1809487.3     -70.078999    
     37000   301.0764      -1809931.5      0             -1809478.6     -135.9997     
     38000   299.36429     -1809937.9      0             -1809487.5     -49.560418    
     39000   298.95664     -1809926.6      0             -1809476.8      12.552648    
     40000   301.54864     -1809934.9      0             -1809481.3      50.299544    
     41000   299.49167     -1809936.6      0             -1809486       -2.7860172    
     42000   296.88335     -1809933.3      0             -1809486.6     -55.598031    
     43000   302.00737     -1809936.9      0             -1809482.6      18.959998    
     44000   305.47994     -1809935.8      0             -1809476.2     -45.856518    
     45000   300.07613     -1809936.7      0             -1809485.2      56.668835    
     46000   301.51829     -1809934.2      0             -1809480.5      81.103722    
     47000   301.65171     -1809931.3      0             -1809477.5      17.18267     
     48000   297.71741     -1809933.1      0             -1809485.2      58.331772    
     49000   295.10238     -1809934.5      0             -1809490.5      16.315115    
     50000   301.44258     -1809930.5      0             -1809476.9     -7.0355452    
     51000   296.83134     -1809932        0             -1809485.4     -23.767899    
     52000   300.30348     -1809939.4      0             -1809487.6      51.587963    
     53000   295.90106     -1809943.3      0             -1809498.2      117.91398    
     54000   300.55199     -1809939.8      0             -1809487.7      72.839677    
     55000   302.21884     -1809939.6      0             -1809484.9      62.467881    
     56000   300.72636     -1809936.2      0             -1809483.8      89.855679    
     57000   302.14728     -1809936.9      0             -1809482.3      34.849209    
     58000   301.02715     -1809932.8      0             -1809479.9      13.198759    
     59000   298.11163     -1809931.3      0             -1809482.8     -0.028662252  
     60000   302.03587     -1809937.2      0             -1809482.8      99.542102    
     61000   301.63429     -1809938.2      0             -1809484.4      47.185067    
     62000   303.64656     -1809935.8      0             -1809479       -4.0996153    
     63000   300.8758      -1809936.1      0             -1809483.4      7.2368335    
     64000   296.73155     -1809934.5      0             -1809488.1      20.760287    
     65000   302.55039     -1809940.9      0             -1809485.7      50.891611    
     66000   297.03315     -1809937.6      0             -1809490.7      61.594783    
     67000   299.37524     -1809936.7      0             -1809486.3      37.314461    
     68000   297.37227     -1809943.1      0             -1809495.8      16.491209    
     69000   300.55966     -1809931.9      0             -1809479.7      13.399154    
     70000   296.66393     -1809936.6      0             -1809490.3      51.203245    
     71000   298.59542     -1809930.5      0             -1809481.2      129.92522    
     72000   299.31834     -1809935.9      0             -1809485.6      134.62828    
     73000   299.09401     -1809937.5      0             -1809487.6      101.24652    
     74000   300.14165     -1809932.9      0             -1809481.3      99.540761    
     75000   303.72904     -1809935        0             -1809478        63.728329    
     76000   302.16027     -1809943.2      0             -1809488.6      58.08576     
     77000   300.6459      -1809943.5      0             -1809491.2      94.854757    
     78000   302.80272     -1809935.7      0             -1809480.1      80.854258    
     79000   301.85046     -1809936.6      0             -1809482.5      63.259195    
     80000   300.33909     -1809934        0             -1809482.1      70.564553    
Loop time of 60052.8 on 1024 procs for 80000 steps with 11640 atoms

Performance: 0.115 ns/day, 208.517 hours/ns, 1.332 timesteps/s, 15.506 katom-step/s
100.0% CPU use with 1024 MPI tasks x 1 OpenMP threads

MPI task timing breakdown:
Section |  min time  |  avg time  |  max time  |%varavg| %total
---------------------------------------------------------------
Pair    | 1284.3     | 5587.9     | 24834      |6429.5 |  9.30
Bond    | 0.0048307  | 0.012963   | 0.21781    |  16.9 |  0.00
Neigh   | 0.14389    | 0.27463    | 1.2119     |  31.4 |  0.00
Comm    | 24.406     | 2027.2     | 7637.2     |3641.0 |  3.38
Output  | 9.3822     | 13.662     | 18.696     |  76.2 |  0.02
Modify  | 30623      | 52412      | 58696      |2623.5 | 87.28
Other   |            | 11.74      |            |       |  0.02

Nlocal:        11.3672 ave         222 max           0 min
Histogram: 885 2 34 81 2 3 4 2 5 6
Nghost:        83.9004 ave        1538 max           0 min
Histogram: 800 129 60 12 5 5 4 4 3 2
Neighs:              0 ave           0 max           0 min
Histogram: 1024 0 0 0 0 0 0 0 0 0
FullNghs:      1222.24 ave       43066 max           0 min
Histogram: 886 112 6 2 1 7 1 3 1 5

Total # of neighbors = 1251570
Ave neighs/atom = 107.5232
Ave special neighs/atom = 0
Neighbor list builds = 3744
Dangerous builds = 0

write_restart nvt_equi.restart.*
System init for write_restart ...
write_data nvt_equi_final.lammps-data
System init for write_data ...

Total wall time: 16:41:19
