LAMMPS data file via write_data, version 4 Feb 2025, timestep = 80000, units = metal

11640 atoms
3 atom types

0 153.85399199999998 xlo xhi
0 148.04607282849756 ylo yhi
0 151.07316997686289 zlo zhi

Masses

1 12.01099999691024
2 1.007999999740698
3 15.99899999588435

Atoms # full

3649 0 1 0 5.850243686829722 2.494551494468046 30.92397818828135 1 0 1
3412 0 1 0 5.12529819129649 1.2572021610437618 31.098376043603015 1 0 1
3416 0 1 0 5.15215127714292 3.6793291379746234 30.822429453725654 1 0 1
3410 0 1 0 2.994632356143413 2.514935736985629 31.048878431988168 1 0 1
3415 0 1 0 3.7056703072493415 3.7755235056908023 30.942340471918012 1 0 1
3411 0 1 0 3.7037484715838236 1.2848772480245376 31.17515835016462 1 0 1
3409 0 1 0 1.5927846136969468 2.5316623321818463 31.094703864026993 1 0 1
3650 0 1 0 7.283567318080839 2.4635006451955745 30.993067740967575 1 0 1
3180 0 1 0 0.9160819973726834 6.189010153538458 30.427008815555592 1 0 1
3655 0 1 0 7.9909454841829355 3.7121779705124873 30.79722479736899 1 0 1
3656 0 1 0 9.437498893714118 3.7063977783935846 30.769246764244453 1 0 1
3420 0 1 0 5.119940281281512 6.18772997985128 30.633472407574477 1 0 1
3657 0 1 0 5.785493480987549 7.411077108137072 30.384487780138905 1 0 1
3653 0 1 0 5.870869005080762 4.932233132100736 30.73540134884808 1 0 1
3414 0 1 0 3.012105079095395 4.975126334304489 30.792575100684665 1 0 1
3419 0 1 0 3.757562987479277 6.21806384083768 30.69400462631984 1 0 1
3418 0 1 0 3.0221549989874195 7.402774063706124 30.403322619084634 1 0 1
3424 0 1 0 5.0641287646633275 8.639520964462209 30.150609326553905 1 0 1
3423 0 1 0 3.6731967360264046 8.621712562775262 30.164365588125204 1 0 1
3417 0 1 0 1.6147801310838634 7.416611043675521 30.336749421945008 1 0 1
3413 0 1 0 1.5859298459542182 4.969345647632944 30.745777528330056 1 0 1
3654 0 1 0 7.248591940552001 4.9439476404236125 30.682458096510704 1 0 1
3658 0 1 0 7.217750096612622 7.395082657774834 30.37899580838227 1 0 1
3659 0 1 0 7.979975763378271 6.185542211169874 30.56866861259341 1 0 1
3660 0 1 0 9.421407333832192 6.234478129814297 30.53104148816945 1 0 1
3192 0 1 0 0.8133455009096999 13.533710902820388 29.486476635624282 1 0 1
3188 0 1 0 0.7822212389730666 11.084398221995215 29.721272779793264 1 0 1
3663 0 1 0 7.922697750822301 8.604436808369917 30.21088374603857 1 0 1
3664 0 1 0 9.383397105509603 8.648617415494996 30.194372505307683 1 0 1
3422 0 1 0 2.9496252530780387 9.877727113238398 29.9165456265556 1 0 1
3426 0 1 0 2.988181096649179 12.274401347120438 29.54182743671106 1 0 1
3661 0 1 0 5.83589382135181 9.850404710195209 29.89504508977453 1 0 1
3665 0 1 0 5.8209512264407355 12.305366396878044 29.308715351118767 1 0 1
3428 0 1 0 5.104852079625755 11.063157787583737 29.633328078100806 1 0 1
3427 0 1 0 3.6757277972405786 11.043375192409352 29.6451282332553 1 0 1
3431 0 1 0 3.657771462000852 13.519906820719491 29.316781763766365 1 0 1
3421 0 1 0 1.5154447081430773 9.830590320798311 29.839061083585776 1 0 1
3425 0 1 0 1.5271651797834314 12.318673121735866 29.66666182801727 1 0 1
3662 0 1 0 7.233374782660526 9.84415726035848 29.947266118906956 1 0 1
3666 0 1 0 7.230955556090501 12.290649453362594 29.34397807602427 1 0 1
3667 0 1 0 7.927066999660993 11.05596772823186 29.701910802713492 1 0 1
3668 0 1 0 9.346661086403207 11.069606559798657 29.75671408806479 1 0 1
3184 0 1 0 0.8461549588244445 8.592954945864243 30.03755795076305 1 0 1
3196 0 1 0 0.7278681944232002 16.039088251316645 29.264138052689287 1 0 1
3430 0 1 0 2.919085618856807 14.752304122149564 29.26255440621304 1 0 1
3434 0 1 0 2.8954827963178547 17.220894615218825 29.33618349633678 1 0 1
3669 0 1 0 5.806597309426093 14.777911096712897 29.174692797560002 1 0 1
3673 0 1 0 5.764532514080957 17.2633865152246 29.09782323842856 1 0 1
3432 0 1 0 5.082789610084428 13.53835272079988 29.210574562880584 1 0 1
3436 0 1 0 5.049959232514217 16.006236497970182 29.178409966324267 1 0 1
3435 0 1 0 3.6241093349784386 16.003998440808207 29.20964192462407 1 0 1
3429 0 1 0 1.5094713188019893 14.783154088947143 29.34197138334474 1 0 1
3433 0 1 0 1.4520151665858843 17.29385161380333 29.22607269425885 1 0 1
3176 0 1 0 0.8658160886077173 3.753852344640487 30.86153106787907 1 0 1
3172 0 1 0 0.9192905194279505 1.3375679596427081 31.212133417526065 1 0 1
3676 0 1 0 9.358720648078036 15.989966000603712 29.002028365522502 1 0 1
3671 0 1 0 7.934694308210248 13.483096400529648 29.174965292369958 1 0 1
3672 0 1 0 9.334808377391102 13.56962908961734 29.30101324584596 1 0 1
3675 0 1 0 7.9016074061920545 15.990798684352285 29.08202058828597 1 0 1
3674 0 1 0 7.187736457711304 17.19083206020299 29.025400088569683 1 0 1
3670 0 1 0 7.235058638841515 14.75277219114952 29.085329913671906 1 0 1
3645 0 1 0 5.842256495466775 0.029722000680393486 31.26608279308258 1 0 1
3406 0 1 0 2.967021963909927 0.08064320804547831 31.482252510685832 1 0 1
3679 0 1 0 7.905386159866328 18.44346926751515 29.086516429644433 1 0 1
3646 0 1 0 7.249659062224957 0.040681965852099586 31.28690859074696 1 0 1
3651 0 1 0 8.010457605136857 1.2785158986096805 31.236728029918762 1 0 1
3652 0 1 0 9.433868915856856 1.2980802065957981 31.23566127143964 1 0 1
3405 0 1 0 1.558189165793592 0.11041462121910577 31.420175817201805 1 0 1
3680 0 1 0 9.354768421532912 18.436448066520974 29.06874473430613 1 0 1
3440 0 1 0 5.080648176057978 18.472078105123266 29.23147259156549 1 0 1
3439 0 1 0 3.653641374953935 18.42055514930949 29.33990731211996 1 0 1
3677 0 1 0 5.762500954123555 19.760539590798125 29.119452287685846 1 0 1
3444 0 1 0 5.060867433653863 21.005488925829262 29.188803356099402 1 0 1
3702 0 1 0 7.15947252097011 34.58442688814048 28.857192512354047 1 0 1
3681 0 1 0 5.793683693670867 22.20674591350099 29.166124206881893 1 0 1
3438 0 1 0 2.917040766688829 19.667235226510254 29.385667821075003 1 0 1
3442 0 1 0 2.8839530506737896 22.137201713025867 29.37514229092591 1 0 1
3443 0 1 0 3.584461399097951 20.942937630547192 29.354943966925727 1 0 1
3703 0 1 0 7.849637536991869 33.26087460723486 28.787647558616445 1 0 1
3441 0 1 0 1.4656438252670667 22.167980915181182 29.289374801586103 1 0 1
3437 0 1 0 1.4862127871789341 19.71844608332697 29.302797548878296 1 0 1
3678 0 1 0 7.165942022410965 19.73480775984629 29.05494134942743 1 0 1
3682 0 1 0 7.206182063886825 22.1729418571339 29.011551318968674 1 0 1
3204 0 1 0 0.7536481596065574 20.932974742504268 29.281776232424995 1 0 1
3683 0 1 0 7.944939099821366 20.92747509488707 28.991398294645574 1 0 1
3707 0 1 0 7.882504868448822 35.818874273749515 28.878183871944135 1 0 1
3684 0 1 0 9.338587271510466 20.877656174275806 28.982269037317067 1 0 1
3220 0 1 0 0.7987882423353558 30.878733983658098 29.39227380669735 1 0 1
3208 0 1 0 0.7577313117081372 23.392022109058875 29.232926709864998 1 0 1
3446 0 1 0 2.8972803755644034 24.659319366024178 29.186571282301156 1 0 1
3685 0 1 0 5.789082443737055 24.67532892609253 29.129985954943816 1 0 1
3448 0 1 0 5.038856617144703 23.420224091570248 29.265909188505915 1 0 1
3452 0 1 0 5.063845941234728 25.87568189101733 29.123431020938682 1 0 1
3451 0 1 0 3.637436627880638 25.883234814669965 29.16617806612746 1 0 1
3447 0 1 0 3.605665190349104 23.412375686882463 29.276532670416696 1 0 1
3450 0 1 0 2.9159679884775644 27.122583199758513 29.131561742660182 1 0 1
3689 0 1 0 5.803854037955426 27.14316007721619 29.074839603986053 1 0 1
3445 0 1 0 1.4748371505918743 24.633106086861673 29.13352791511658 1 0 1
3449 0 1 0 1.5010646864992592 27.10459293442209 29.26233525878411 1 0 1
3686 0 1 0 7.221844762469117 24.672355662439074 28.97822055588846 1 0 1
3687 0 1 0 7.88662248520844 23.405957523647956 28.852839289047786 1 0 1
3691 0 1 0 7.9235235329650475 25.89279221598449 28.985746574967322 1 0 1
3688 0 1 0 9.334856261204004 23.35380878661466 28.728202521439734 1 0 1
3692 0 1 0 9.32522012484969 25.835648842371093 28.763204900504135 1 0 1
3212 0 1 0 0.7810975962647033 25.872288554429563 29.2647127193812 1 0 1
3690 0 1 0 7.260681544607848 27.16134256291665 29.055131126588932 1 0 1
3224 0 1 0 0.7883088367933049 33.39508100813499 29.428020176934794 1 0 1
3454 0 1 0 2.9615083152305797 29.59985790375481 29.225278013610545 1 0 1
3456 0 1 0 5.111658087725778 28.36016346057176 29.117176738865 1 0 1
3460 0 1 0 5.048162457343533 30.882601681493867 29.146788965976555 1 0 1
3693 0 1 0 5.77048901450503 29.62569023848898 29.03391906852233 1 0 1
3455 0 1 0 3.650975892962639 28.365311130201555 29.170585925299495 1 0 1
3459 0 1 0 3.6324249908806254 30.844330938924006 29.309047250037285 1 0 1
3458 0 1 0 2.9172922103509236 32.11019718270855 29.396006349224347 1 0 1
3453 0 1 0 1.5182883816363277 29.60392226933449 29.216288356469065 1 0 1
3457 0 1 0 1.4896593784180272 32.11288180011511 29.497335324469123 1 0 1
3694 0 1 0 7.175407197199159 29.632558944406757 28.966347745802146 1 0 1
3695 0 1 0 7.950160207681494 28.376422872147714 28.96142386485583 1 0 1
3699 0 1 0 7.880150621025119 30.838699033849714 28.863542036586924 1 0 1
3700 0 1 0 9.346019084208475 30.849389418134553 28.781553021952952 1 0 1
3696 0 1 0 9.316195803574363 28.360613300676825 28.79334745394049 1 0 1
3216 0 1 0 0.8122060942130316 28.359098118803644 29.260645342944475 1 0 1
3698 0 1 0 7.164653776062725 32.07245671910435 28.853784360755487 1 0 1
3468 0 1 0 5.059702995818548 35.7961190878087 29.098996985324316 1 0 1
3697 0 1 0 5.759626478243055 32.08256027404336 29.092280837681987 1 0 1
3701 0 1 0 5.772972367988313 34.55698848679467 29.0282032615041 1 0 1
3464 0 1 0 5.0744163816124095 33.32864980094344 29.176031569261887 1 0 1
3462 0 1 0 2.882082034758603 34.53854467350417 29.34189647087655 1 0 1
3463 0 1 0 3.6494064814629943 33.36223470634533 29.315050818367737 1 0 1
3467 0 1 0 3.6127600963711624 35.74521001567424 29.195203725261106 1 0 1
3461 0 1 0 1.461040026382888 34.57464619179935 29.453470433202142 1 0 1
3228 0 1 0 0.7256708894606478 35.784727173812904 29.520831793488547 1 0 1
3704 0 1 0 9.282599519487405 33.306022817534114 28.75363174443934 1 0 1
3708 0 1 0 9.284294887775001 35.80407727473256 28.742761719416855 1 0 1
3465 0 1 0 1.453766255920801 36.960650037532645 29.374026797422133 1 0 1
3466 0 1 0 2.874546164199523 36.98080228144507 29.231827281906643 1 0 1
3200 0 1 0 0.7636771543188926 18.52598611014472 29.20993605261569 1 0 1
3734 0 1 0 7.140690446008154 54.234395966737864 30.120657870946054 1 0 1
3709 0 1 0 5.7041333555245 39.47543574259211 29.216685741107852 1 0 1
3472 0 1 0 4.983130256447291 38.27401600596614 29.151576542921745 1 0 1
3476 0 1 0 5.038867583302522 40.728214711897095 29.45629238649992 1 0 1
3470 0 1 0 2.88229318958977 39.48149161690404 29.380941874928098 1 0 1
3735 0 1 0 7.851204607012641 52.99802437917254 30.260950244611184 1 0 1
3471 0 1 0 3.5731813264150425 38.24639039052022 29.288384784958346 1 0 1
3475 0 1 0 3.5817729862865604 40.745116565419984 29.508186979779364 1 0 1
3739 0 1 0 7.8458351302907605 55.4439248001854 30.194526000669768 1 0 1
3469 0 1 0 1.4636937312817826 39.46450258962617 29.537909063781655 1 0 1
3706 0 1 0 7.125700303984116 37.0571919833249 29.00290978499518 1 0 1
3710 0 1 0 7.153104340457372 39.49095386773018 29.172457910698846 1 0 1
3711 0 1 0 7.864899851799123 38.275227029346944 29.046106717694748 1 0 1
3712 0 1 0 9.24822498483746 38.25393138807572 29.050314714150684 1 0 1
3236 0 1 0 0.7227991629096545 40.68430756276214 29.747253033881 1 0 1
3252 0 1 0 0.7148470757955163 50.56977941000431 29.75304001095833 1 0 1
3715 0 1 0 7.867879309585674 40.725126357522484 29.296977338887668 1 0 1
3716 0 1 0 9.286514383850665 40.67651509702848 29.349209704809883 1 0 1
3474 0 1 0 2.8808770568525164 41.9879675548582 29.614301441523438 1 0 1
3717 0 1 0 5.728903797765921 44.396650921652196 29.726019308649523 1 0 1
3713 0 1 0 5.6887136232841895 41.92833073303055 29.60184749016546 1 0 1
3480 0 1 0 5.011319520662373 43.154312254709914 29.712021803084145 1 0 1
3478 0 1 0 2.831793258475503 44.39391281333979 29.87141623977292 1 0 1
3479 0 1 0 3.560073432483093 43.17962091215626 29.71681069373016 1 0 1
3484 0 1 0 4.9868393263063115 45.642002827970835 29.771356593410466 1 0 1
3483 0 1 0 3.584329289002711 45.608471817515095 29.85429197078001 1 0 1
3473 0 1 0 1.426007575457802 41.9377262956075 29.745908644090488 1 0 1
3477 0 1 0 1.4266382060722564 44.455067238548686 29.852979493329247 1 0 1
3714 0 1 0 7.137088432467661 41.911070163034864 29.57364912099232 1 0 1
3718 0 1 0 7.17792923638292 44.39800527539423 29.72540875245556 1 0 1
3719 0 1 0 7.84876641633959 43.13985032743745 29.625333777862217 1 0 1
3720 0 1 0 9.297996416329527 43.124948520858574 29.53253145429519 1 0 1
3240 0 1 0 0.7442600096511149 43.155519793798085 29.888186074053497 1 0 1
3244 0 1 0 0.6790357715186837 45.69075368488887 30.022283297957237 1 0 1
3723 0 1 0 7.857379483269961 45.65206754879916 29.85612357448051 1 0 1
3724 0 1 0 9.31699348734973 45.61849245322899 29.830196901906127 1 0 1
3486 0 1 0 2.8278151220791257 49.33992824087087 29.7521282097888 1 0 1
3488 0 1 0 4.965442106598669 48.13508570876215 29.75879206041122 1 0 1
3721 0 1 0 5.653602554993911 46.83555096943181 29.75949468403218 1 0 1
3725 0 1 0 5.730465106720104 49.3375003366494 29.865803873397684 1 0 1
3482 0 1 0 2.827779686392351 46.86004479414195 29.9213226796858 1 0 1
3487 0 1 0 3.525701289532972 48.09333207658194 29.850734333792317 1 0 1
3481 0 1 0 1.4166495516473745 46.881836407357 29.958050369059936 1 0 1
3485 0 1 0 1.426435582460547 49.363219319907905 29.890809741301673 1 0 1
3722 0 1 0 7.120544073792121 46.88094440967262 29.863392416061625 1 0 1
3726 0 1 0 7.149620041432121 49.37326118001791 29.99584607679469 1 0 1
3727 0 1 0 7.8266998624968425 48.130432159539644 29.93030173084177 1 0 1
3728 0 1 0 9.261481694449065 48.11261862229289 30.063511845682417 1 0 1
3256 0 1 0 0.7220457035581493 52.984613392733436 29.482353105083313 1 0 1
3232 0 1 0 0.7272277094779376 38.19280166000925 29.488492731463158 1 0 1
3496 0 1 0 4.99634977471421 53.02741514391286 29.980268942955856 1 0 1
3733 0 1 0 5.70575407921833 54.23754027682097 30.039674402343753 1 0 1
3492 0 1 0 5.025818582491754 50.576171059933905 29.86506331997048 1 0 1
3729 0 1 0 5.709653479942637 51.798511783743116 30.091876880439447 1 0 1
3490 0 1 0 2.823936429514049 51.83561376814495 29.842985479399378 1 0 1
3491 0 1 0 3.5867789938863215 50.581301650650914 29.84732618117622 1 0 1
3495 0 1 0 3.570114655943317 53.054905717677634 29.872601803703294 1 0 1
3494 0 1 0 2.8817396576703675 54.28992374097026 29.711333045927326 1 0 1
3493 0 1 0 1.4535335003107193 54.24502276487532 29.473784389559025 1 0 1
3489 0 1 0 1.440049522199992 51.7969433928314 29.5776111692942 1 0 1
3730 0 1 0 7.117998215645111 51.79058967817028 30.184420309235108 1 0 1
3248 0 1 0 0.7208078954626542 48.12121814160983 30.016298082516816 1 0 1
3732 0 1 0 9.273795335555473 50.56761488387302 30.20301430436044 1 0 1
3731 0 1 0 7.824173818431066 50.59282881205568 30.12233880504293 1 0 1
3736 0 1 0 9.274712514274535 52.996897947649224 30.242484586869903 1 0 1
3740 0 1 0 9.289100981982862 55.447811440147454 30.331015460905085 1 0 1
3500 0 1 0 5.007256973785428 55.484581285320225 29.848581579456468 1 0 1
3260 0 1 0 0.7819354721893973 55.47349303456321 29.329941270863337 1 0 1
3705 0 1 0 5.6935351288100255 37.048080251910804 29.051730922584998 1 0 1
3737 0 1 0 5.763042159712825 56.69602487866271 29.85281460522094 1 0 1
3763 0 1 0 7.811474091006412 70.36083380370502 29.94304280692954 1 0 1
3504 0 1 0 4.9989403859251675 57.963640420121656 29.77007806931178 1 0 1
3498 0 1 0 2.8974461170326937 56.73470786135828 29.60460199876482 1 0 1
3741 0 1 0 5.71360307779791 59.210620607551895 29.838659614882815 1 0 1
3502 0 1 0 2.86247158007017 59.206735146576484 29.60102251433273 1 0 1
3264 0 1 0 0.7423708833548399 57.946453041412404 29.340772356731193 1 0 1
3503 0 1 0 3.5869691871873295 58.012489187911164 29.701056913899006 1 0 1
3497 0 1 0 1.4824410686155227 56.754177106596664 29.42626177432607 1 0 1
3501 0 1 0 1.4692069741813278 59.181482381067724 29.462523499553413 1 0 1
3738 0 1 0 7.140416043966677 56.67769600900623 30.041946778361446 1 0 1
3742 0 1 0 7.122047601302266 59.178791780654386 29.918589246107206 1 0 1
3758 0 1 0 7.102776000364148 69.0872532810618 29.97492760271909 1 0 1
3743 0 1 0 7.830329217394441 57.905683630628964 30.018918098034383 1 0 1
3767 0 1 0 7.875862143633357 72.83797681603802 29.76625409163064 1 0 1
3744 0 1 0 9.248877111231947 57.931476124324384 30.216161817355484 1 0 1
3268 0 1 0 0.7482804875279462 60.42714504834004 29.425847967604465 1 0 1
3272 0 1 0 0.7411560724926965 62.965629293417145 29.27945347953259 1 0 1
3512 0 1 0 4.993955299560136 62.96247893814527 29.724345857901675 1 0 1
3508 0 1 0 5.022119635953636 60.47853085405554 29.753233934267417 1 0 1
3745 0 1 0 5.70358661150845 61.692428274254794 29.81560111302654 1 0 1
3506 0 1 0 2.8394672503228326 61.66587955794104 29.570669863095482 1 0 1
3507 0 1 0 3.6045667372907833 60.42930068669927 29.68277169226517 1 0 1
3511 0 1 0 3.5881790424079276 62.92586762003939 29.685712341554783 1 0 1
3749 0 1 0 5.689181431572099 64.21321258899026 29.743941845646784 1 0 1
3510 0 1 0 2.8451628488979246 64.16547763188625 29.669864108591817 1 0 1
3509 0 1 0 1.45428755954112 64.18039377180381 29.35285448521246 1 0 1
3505 0 1 0 1.4120670951202456 61.69512103350692 29.48404141003087 1 0 1
3746 0 1 0 7.147249496082078 61.65581560361545 29.879689349585306 1 0 1
3751 0 1 0 7.805849790381034 62.94550603924165 30.043682897950834 1 0 1
3747 0 1 0 7.88070560374401 60.469954506376304 29.95762180283189 1 0 1
3752 0 1 0 9.234330337779074 62.908828113487054 30.185272558667588 1 0 1
3748 0 1 0 9.28123151039194 60.43427161819302 30.10250472765874 1 0 1
3284 0 1 0 0.7849077424885714 70.33749582280144 29.019906584452347 1 0 1
3750 0 1 0 7.126576354161388 64.19028259145065 29.948709646752917 1 0 1
3280 0 1 0 0.796277698934606 67.8753117509748 29.170647352266688 1 0 1
3515 0 1 0 3.5380341410484935 65.3638128907617 29.66426372596293 1 0 1
3520 0 1 0 4.995580373107795 67.91042209640888 29.710809940259473 1 0 1
3516 0 1 0 4.963890381823291 65.39908550441754 29.755105615077724 1 0 1
3753 0 1 0 5.7355156032730585 66.60000289010546 29.843590211308083 1 0 1
3514 0 1 0 2.8539178436778085 66.61014540638016 29.415434919139216 1 0 1
3519 0 1 0 3.588127556660228 67.89138313086428 29.436281890585537 1 0 1
3513 0 1 0 1.466792717254178 66.66462976423504 29.341219857868705 1 0 1
3754 0 1 0 7.129563481684258 66.62860219588333 30.006076450666846 1 0 1
3759 0 1 0 7.8310182540998134 67.88112258284966 30.143244936482176 1 0 1
3755 0 1 0 7.83623817123966 65.3904129770777 30.09715053062453 1 0 1
3760 0 1 0 9.275001305026269 67.85576278642266 30.275138067461413 1 0 1
3756 0 1 0 9.244859133164587 65.38570849442904 30.274716171781925 1 0 1
3276 0 1 0 0.7545887030464864 65.43744561559615 29.2901125276524 1 0 1
3518 0 1 0 2.888265614791953 69.11362600431029 29.327327769366583 1 0 1
3522 0 1 0 2.9277698994396237 71.53243572522784 29.199586188302263 1 0 1
3528 0 1 0 5.0439321554970125 72.82882852924939 29.53600296908315 1 0 1
3524 0 1 0 5.011173015484843 70.34584539509386 29.542017287461736 1 0 1
3757 0 1 0 5.705551438775011 69.12560864306404 29.831156505793025 1 0 1
3761 0 1 0 5.700573189006995 71.57741909921562 29.588839680402177 1 0 1
3527 0 1 0 3.6643580975130607 72.80832092201976 29.30211132766914 1 0 1
3523 0 1 0 3.601591213434009 70.31263893517965 29.255473632153123 1 0 1
3521 0 1 0 1.5268686678285803 71.55837666219627 29.04073106297301 1 0 1
3517 0 1 0 1.467344491919353 69.1152744259193 29.146452064610816 1 0 1
3762 0 1 0 7.157112540148263 71.58919046975063 29.752003162425854 1 0 1
3764 0 1 0 9.207138649004918 70.32314899185941 30.08102474675789 1 0 1
3768 0 1 0 9.317732933955167 72.8551873870302 29.943946522186263 1 0 1
3288 0 1 0 0.9125432402815218 72.81684014821315 29.000590322709144 1 0 1
3499 0 1 0 3.575302083597403 55.51746546682466 29.641468837231393 1 0 1
3769 0 1 0 5.781882861159524 76.49129103410365 29.759472635923306 1 0 1
3532 0 1 0 5.055724540863195 75.30145407362801 29.69084135345394 1 0 1
3765 0 1 0 5.748873399762729 74.02457656150634 29.624945907106287 1 0 1
3536 0 1 0 5.088306163631041 77.80938738424092 29.73757772947862 1 0 1
3526 0 1 0 2.9725578045925767 74.07631175393487 29.32200375513868 1 0 1
3531 0 1 0 3.6520303047269875 75.27464969378003 29.557912297828196 1 0 1
3535 0 1 0 3.6649939903702213 77.81015813334606 29.603873245439875 1 0 1
3530 0 1 0 2.9776097266109005 76.52858554896127 29.515268708841873 1 0 1
3529 0 1 0 1.5478408111123727 76.55168324607307 29.377187803994573 1 0 1
3525 0 1 0 1.5753751983642024 74.07048925336247 29.188334345507958 1 0 1
3770 0 1 0 7.186181316490574 76.59703284487139 29.8728434245589 1 0 1
3766 0 1 0 7.179243005269638 74.05762584133616 29.7861440914368 1 0 1
3771 0 1 0 7.88395268758516 75.32818044217476 29.929896331003015 1 0 1
3772 0 1 0 9.299310195270008 75.31059023615316 29.91831240490828 1 0 1
3312 0 1 0 0.8409512359765489 87.72665630721694 29.41051825547832 1 0 1
3308 0 1 0 0.8092213046725497 85.21691990356058 29.41511919151896 1 0 1
3775 0 1 0 7.829722251681509 77.79288006060825 30.078683549922346 1 0 1
3776 0 1 0 9.230241158241057 77.7769816881085 30.172230115096596 1 0 1
3777 0 1 0 5.826280002845706 81.52142287108484 29.980638058410896 1 0 1
3773 0 1 0 5.769960287982632 79.03639617317006 29.978047239215243 1 0 1
3540 0 1 0 5.058670854481311 80.29328254880511 29.952165293026813 1 0 1
3534 0 1 0 2.950355479838762 79.08079409584441 29.657540804461572 1 0 1
3538 0 1 0 2.9582137883054767 81.55390436475598 29.634602579386854 1 0 1
3539 0 1 0 3.6684616812352413 80.30857157529546 29.683408530487362 1 0 1
3544 0 1 0 5.097622293459238 82.73129320107135 29.92073868967237 1 0 1
3543 0 1 0 3.665564686519943 82.76985328282608 29.78008412212882 1 0 1
3533 0 1 0 1.5478962119525532 79.02485500214253 29.56376579177214 1 0 1
3537 0 1 0 1.509786638555867 81.54249859052275 29.600156473327377 1 0 1
3778 0 1 0 7.203471551368481 81.52104353705161 30.318281682754684 1 0 1
3774 0 1 0 7.145177163413768 79.06902272411214 30.13481657491661 1 0 1
3779 0 1 0 7.8724065381976205 80.28898808829608 30.288805074520656 1 0 1
3780 0 1 0 9.305079983927344 80.24473156922187 30.421678939994163 1 0 1
3790 0 1 0 7.251262156115514 88.87227686869211 29.780131095245714 1 0 1
3304 0 1 0 0.7884079106968893 82.75196969966822 29.560377130571453 1 0 1
3783 0 1 0 7.875798692904742 82.73535075920108 30.355569790652883 1 0 1
3784 0 1 0 9.345042608420949 82.68579185610703 30.452781134646056 1 0 1
3546 0 1 0 2.9227913761691604 86.49582814446377 29.809953802108833 1 0 1
3785 0 1 0 5.837369044868692 86.43875382754861 29.969800623640236 1 0 1
3781 0 1 0 5.809286482773813 83.96294599807784 29.96307803986764 1 0 1
3548 0 1 0 5.060248268246443 85.22047189801116 29.95408307124833 1 0 1
3542 0 1 0 2.9321467369850303 83.97972172921709 29.75055211661076 1 0 1
3547 0 1 0 3.6652105366166223 85.27651234166996 29.8844131532725 1 0 1
3545 0 1 0 1.5462941041648064 86.4576126560457 29.584258042373868 1 0 1
3541 0 1 0 1.556757240599025 83.9930300906911 29.4678250649215 1 0 1
3786 0 1 0 7.245910939237228 86.42639777600705 30.00098407954436 1 0 1
3782 0 1 0 7.211784168080043 83.96503848748713 30.161793982708303 1 0 1
3787 0 1 0 7.977915743245304 85.15288910939074 30.08876902954144 1 0 1
3788 0 1 0 9.357211869167333 85.16885498897294 30.30959917789943 1 0 1
3292 0 1 0 0.8790286217324952 75.30144630134852 29.247750407268065 1 0 1
3316 0 1 0 0.8165181961578886 90.14935225833591 29.441384149163998 1 0 1
3554 0 1 0 2.977927171601901 91.35796071203119 29.40359026428714 1 0 1
3550 0 1 0 2.951549362384363 88.95393759327808 29.502359361352624 1 0 1
3793 0 1 0 5.835037259553781 91.39559134088746 29.345703839943553 1 0 1
3552 0 1 0 5.067993507921872 87.71354222061268 29.80557011564217 1 0 1
3789 0 1 0 5.802503606805038 88.91579044020129 29.673490181500515 1 0 1
3556 0 1 0 5.098949045787842 90.13977430737158 29.420196262888403 1 0 1
3551 0 1 0 3.646007124192637 87.72039249414958 29.682450797555255 1 0 1
3555 0 1 0 3.703387152086254 90.1280640649161 29.3884080337457 1 0 1
3553 0 1 0 1.5329993486767666 91.38169170564886 29.545693882848504 1 0 1
3549 0 1 0 1.5356008800715606 88.90561129666871 29.4618719022602 1 0 1
3795 0 1 0 7.972502781914539 90.12676475997353 29.706899521467736 1 0 1
3791 0 1 0 7.998359807695854 87.62671563476454 29.893950670109056 1 0 1
3796 0 1 0 9.367335179442659 90.1086541803615 29.82141183842788 1 0 1
3300 0 1 0 0.820824064870859 80.30132969581923 29.537102411726142 1 0 1
3792 0 1 0 9.401274448680345 87.67084963454707 30.118112614304714 1 0 1
3296 0 1 0 0.8107422146255405 77.80512814667779 29.390665970641546 1 0 1
3794 0 1 0 7.226464866054104 91.34970786657696 29.5131609076089 1 0 1
3797 0 1 0 5.804386645991103 93.85542432945992 29.33100472287816 1 0 1
3564 0 1 0 5.069081249626427 95.04435794170064 29.431621022165494 1 0 1
3560 0 1 0 5.114919831515991 92.62278317174822 29.302187569663392 1 0 1
3801 0 1 0 5.771982511364247 96.30149407870806 29.491638538582215 1 0 1
3562 0 1 0 2.96414638572922 96.2882822887383 29.668691781240955 1 0 1
3558 0 1 0 2.9419095220555036 93.84042351230477 29.442820409524085 1 0 1
3559 0 1 0 3.7094466203648646 92.60603594987516 29.339639593026615 1 0 1
3563 0 1 0 3.665595308297395 95.05042285994503 29.476212358199493 1 0 1
3557 0 1 0 1.5363197077246704 93.8358988988196 29.50428974521763 1 0 1
3561 0 1 0 1.5332267604585943 96.30281432784042 29.567172392386322 1 0 1
3798 0 1 0 7.214157841118838 93.85026142219672 29.423042163030512 1 0 1
3802 0 1 0 7.187359694352007 96.30835939433521 29.38424046216235 1 0 1
3803 0 1 0 7.94083004877158 95.0739688777318 29.337789860398548 1 0 1
3799 0 1 0 7.936855577218795 92.62638099100616 29.591826211279805 1 0 1
3804 0 1 0 9.407326323228128 95.05504447402171 29.407944393592846 1 0 1
3800 0 1 0 9.387266977131961 92.56792920180858 29.650659941978784 1 0 1
3332 0 1 0 0.7953247651436449 100.01212922305214 30.082156369813443 1 0 1
3336 0 1 0 0.8250278358265256 102.43985640464145 30.43505543501135 1 0 1
3566 0 1 0 2.9569835226957064 98.77001992392782 29.95961630759411 1 0 1
3805 0 1 0 5.835634231344466 98.76442935868307 29.81807847290001 1 0 1
3572 0 1 0 5.123077940774395 99.97554612865686 30.0964311431486 1 0 1
3568 0 1 0 5.068111688185812 97.54474054704727 29.65549258291713 1 0 1
3571 0 1 0 3.692078439516453 99.95610479600093 30.188221518539645 1 0 1
3567 0 1 0 3.6566029519658407 97.52001512152904 29.76133531385823 1 0 1
3570 0 1 0 2.9863424857164187 101.20729278872216 30.219879181483307 1 0 1
3809 0 1 0 5.804002477930818 101.24157375925692 30.083733403915456 1 0 1
3565 0 1 0 1.542207067249351 98.79898776927178 29.897483659577144 1 0 1
3569 0 1 0 1.5607995444284148 101.2043817450745 30.336201157178255 1 0 1
3806 0 1 0 7.216531832329689 98.78931830342978 29.72477293506595 1 0 1
3811 0 1 0 7.930392801387355 100.04405112911418 29.75653542237825 1 0 1
3807 0 1 0 7.928592940211976 97.5431508909651 29.514889375422587 1 0 1
3812 0 1 0 9.356128456092957 99.99646620905273 29.82568830280271 1 0 1
3808 0 1 0 9.356101281344483 97.55300855800922 29.6202322920593 1 0 1
3344 0 1 0 0.8085868775169253 107.41730831846647 30.489083303966844 1 0 1
3810 0 1 0 7.263614994565252 101.24542728800466 30.032984108812794 1 0 1
3574 0 1 0 2.9793838378546056 103.72491256211104 30.48865701965684 1 0 1
3813 0 1 0 5.798323275028262 103.73183202014336 30.44694253121606 1 0 1
3580 0 1 0 5.158071492971309 104.97133024393835 30.538983246584 1 0 1
3576 0 1 0 5.120422544607122 102.49272795474187 30.29262627163415 1 0 1
3575 0 1 0 3.690481010654565 102.49933468638744 30.354238680467393 1 0 1
3579 0 1 0 3.7028446799870824 104.94712923859885 30.59875583388447 1 0 1
3573 0 1 0 1.513516189147772 103.69042508967065 30.582482823593416 1 0 1
3814 0 1 0 7.2947699213958455 103.68032218789729 30.420872144954522 1 0 1
3815 0 1 0 7.979984803247476 102.439268491037 30.189752998349547 1 0 1
3578 0 1 0 2.9618086758706164 106.18813384362824 30.611752697619476 1 0 1
3587 0 1 0 3.678050788951694 109.90565245543945 30.682414436354396 1 0 1
3582 0 1 0 2.995469971112984 108.64277848468888 30.641013887587782 1 0 1
3583 0 1 0 3.6586064354625796 107.37754950517795 30.609562356486208 1 0 1
3581 0 1 0 1.5188215405613004 108.65718140822501 30.598895136029885 1 0 1
3577 0 1 0 1.5620130677966557 106.17986523209034 30.541262570305946 1 0 1
3340 0 1 0 0.8343817391052443 104.92392392227913 30.545694108580136 1 0 1
3819 0 1 0 7.984083189904882 104.93437079422037 30.479167178150547 1 0 1
3816 0 1 0 9.382612311411323 102.45366437648691 30.111255440113695 1 0 1
3820 0 1 0 9.387040459638104 104.93999659344458 30.458209147473166 1 0 1
3328 0 1 0 0.8046074473583067 97.5816221181821 29.702451595242746 1 0 1
3320 0 1 0 0.819188301634942 92.63147930851277 29.462285807387737 1 0 1
3818 0 1 0 7.272440091863496 106.17879645963471 30.527257611582822 1 0 1
3817 0 1 0 5.848144789384196 106.2008186668105 30.590241146184788 1 0 1
3584 0 1 0 5.082868290091365 107.3898492021317 30.575538123675678 1 0 1
3588 0 1 0 5.1079350551540195 109.8729439396172 30.63206410948026 1 0 1
3821 0 1 0 5.808247106084656 108.64778443286119 30.57811037178971 1 0 1
3827 0 1 0 7.966591722413897 109.85436145043985 30.64488876139752 1 0 1
3828 0 1 0 9.406196698399233 109.85781797138524 30.668488290081903 1 0 1
3348 0 1 0 0.8041559429030488 109.90192452163792 30.710172545535425 1 0 1
3824 0 1 0 9.407898318351794 107.39764536831836 30.59175606288093 1 0 1
3823 0 1 0 7.962912664085336 107.41745024178704 30.542734839116445 1 0 1
3822 0 1 0 7.2091180593877215 108.61239522061243 30.59662400274421 1 0 1
3324 0 1 0 0.800036588675998 95.06023541081818 29.571288262169396 1 0 1
3586 0 1 0 2.94339861724479 111.12815483048867 30.826230298543422 1 0 1
3585 0 1 0 1.5207421042065958 111.12241593124627 30.759351793707534 1 0 1
3825 0 1 0 5.846892330165927 111.12955559071983 30.736140667593414 1 0 1
3829 0 1 0 5.838442083363558 113.57965452737594 31.00722422216559 1 0 1
3592 0 1 0 5.101941473219865 112.34670923389385 30.866271806058123 1 0 1
3596 0 1 0 5.090881625393166 114.82482551646201 31.10119416350137 1 0 1