LAMMPS (4 Feb 2025)
OMP_NUM_THREADS environment is not set. Defaulting to 1 thread. (src/comm.cpp:99)
  using 1 OpenMP thread(s) per MPI task
# LAMMPS script for running NVT simulation

units       metal
dimension   3
boundary    p p p
atom_style  full
atom_modify map yes

newton      on

read_data   ../start.lammps-data
Reading data file ...
  orthogonal box = (0 0 0) to (154.008 148.2 151.07609)
  16 by 8 by 12 MPI processor grid
  reading atoms ...
  22680 atoms
  reading velocities ...
  22680 velocities
Finding 1-2 1-3 1-4 neighbors ...
  special bond factors lj:    0        0        0       
  special bond factors coul:  0        0        0       
     0 = max # of 1-2 neighbors
     0 = max # of 1-3 neighbors
     0 = max # of 1-4 neighbors
     1 = max # of special neighbors
  special bonds CPU = 5.539 seconds
  read_data CPU = 5.957 seconds

pair_style  symmetrix/mace
pair_coeff  * * ../../../../00-common/models/ch2o-dens-inv_swa-1-6-8.json C H O
Loading MACE model from '../../../../00-common/models/ch2o-dens-inv_swa-1-6-8.json' ... success
  mapping LAMMPS type 1 (C) to MACE type 1
  mapping LAMMPS type 2 (H) to MACE type 0
  mapping LAMMPS type 3 (O) to MACE type 2

variable t equal step

group graphene type 1
8640 atoms in group graphene
group H2O type 2 3
14040 atoms in group H2O

thermo 1000

######### NVT equilibration for 80 ps #############

dump DUMP1 all atom 100 nvt_equi.lammpstrj
timestep 0.001
fix NVT1 H2O nvt temp 300 300 0.1
run 80000
Neighbor list info ...
  update: every = 1 steps, delay = 0 steps, check = yes
  max neighbors/atom: 2000, page size: 100000
  master list distance cutoff = 8
  ghost atom cutoff = 8
  binsize = 4, bins = 39 38 38
  1 neighbor lists, perpetual/occasional/extra = 1 0 0
  (1) pair symmetrix/mace, perpetual
      attributes: full, newton on
      pair build: full/bin
      stencil: full/bin/3d
      bin: standard
Per MPI rank memory allocation (min/avg/max) = 5.965 | 6.253 | 8.153 Mbytes
   Step          Temp          E_pair         E_mol          TotEng         Press     
         0   184.75033     -3538106.3      0             -3537564.7      8.6379897    
      1000   185.32869     -3538140        0             -3537596.7      56.885543    
      2000   185.07565     -3538148.3      0             -3537605.8      64.827724    
      3000   187.2592      -3538162.8      0             -3537613.9      95.72336     
      4000   186.44779     -3538150.3      0             -3537603.7      50.099646    
      5000   184.4047      -3538153.2      0             -3537612.6      31.446384    
      6000   185.30684     -3538145.7      0             -3537602.5      62.598498    
      7000   185.54137     -3538162.9      0             -3537619        77.296933    
      8000   185.83661     -3538161.4      0             -3537616.6      52.085822    
      9000   184.21782     -3538167.9      0             -3537627.9      77.462116    
     10000   183.69722     -3538154.6      0             -3537616        48.994468    
     11000   185.73947     -3538168.5      0             -3537624        66.011814    
     12000   183.58503     -3538167.9      0             -3537629.8      55.103658    
     13000   186.23904     -3538177        0             -3537631        78.822641    
     14000   186.6835      -3538171.6      0             -3537624.3      63.136607    
     15000   184.57944     -3538174.6      0             -3537633.5      40.066388    
     16000   184.9106      -3538182.4      0             -3537640.4      88.141496    
     17000   186.56425     -3538170.6      0             -3537623.7      27.456057    
     18000   186.32658     -3538174.8      0             -3537628.6      58.59619     
     19000   184.28336     -3538180.4      0             -3537640.2      101.90161    
     20000   185.41539     -3538171.1      0             -3537627.5      71.318289    
     21000   184.13163     -3538178        0             -3537638.2      42.496819    
     22000   187.4332      -3538169.1      0             -3537619.7      50.485268    
     23000   185.17192     -3538160.8      0             -3537617.9      37.333456    
     24000   185.65651     -3538173.5      0             -3537629.2      51.09166     
     25000   185.71757     -3538169.3      0             -3537624.8      52.695945    
     26000   188.62921     -3538158        0             -3537605        62.824084    
     27000   184.04203     -3538173.5      0             -3537634        36.812871    
     28000   187.12434     -3538175.1      0             -3537626.5      78.31369     
     29000   184.31541     -3538180.5      0             -3537640.2      72.869107    
     30000   183.58283     -3538173.3      0             -3537635.2      6.785338     
     31000   187.0826      -3538173.1      0             -3537624.6      60.298535    
     32000   186.09781     -3538180        0             -3537634.5      48.353363    
     33000   184.01864     -3538168.4      0             -3537629        13.076769    
     34000   186.72355     -3538182.9      0             -3537635.5      54.403069    
     35000   185.76667     -3538174.9      0             -3537630.3      86.052838    
     36000   186.3038      -3538178.3      0             -3537632.2      64.213765    
     37000   185.98492     -3538182.2      0             -3537637        47.640897    
     38000   187.45937     -3538176        0             -3537626.5      71.996106    
     39000   186.14785     -3538182.6      0             -3537636.9      32.406933    
     40000   184.55824     -3538178        0             -3537637        32.35642     
     41000   187.24521     -3538174.1      0             -3537625.2      63.729259    
     42000   183.87862     -3538171.9      0             -3537632.9      85.175237    
     43000   183.17508     -3538177.3      0             -3537640.4      54.915281    
     44000   183.94892     -3538174.7      0             -3537635.5      43.396595    
     45000   185.06103     -3538167.8      0             -3537625.3      34.453471    
     46000   185.55961     -3538164.7      0             -3537620.8      39.274243    
     47000   184.27928     -3538168.7      0             -3537628.5      58.829741    
     48000   186.20503     -3538171.2      0             -3537625.4      52.133562    
     49000   185.60387     -3538172.6      0             -3537628.5      58.709398    
     50000   185.63734     -3538174.2      0             -3537630        49.429473    
     51000   185.88853     -3538174.6      0             -3537629.6      55.922799    
     52000   184.59072     -3538182.9      0             -3537641.8      35.582292    
     53000   183.86817     -3538172.9      0             -3537633.9      21.23495     
     54000   184.07306     -3538179.9      0             -3537640.3      64.927589    
     55000   187.5833      -3538168        0             -3537618.1      49.5637      
     56000   186.91773     -3538176.6      0             -3537628.6      73.283994    
     57000   185.57452     -3538171.6      0             -3537627.6      84.7795      
     58000   186.77318     -3538170.2      0             -3537622.7      44.580126    
     59000   188.52536     -3538167.6      0             -3537614.9      74.684845    
     60000   187.35578     -3538171.8      0             -3537622.5      30.301027    
     61000   187.51106     -3538172.4      0             -3537622.7      60.512649    
     62000   186.86985     -3538163.9      0             -3537616.1      77.224647    
     63000   182.40139     -3538168        0             -3537633.3      47.654137    
     64000   184.34236     -3538175.9      0             -3537635.5      65.131208    
     65000   184.88744     -3538178.9      0             -3537636.9      44.933169    
     66000   186.55801     -3538169.7      0             -3537622.8      54.202666    
     67000   185.77401     -3538174.7      0             -3537630.1      25.437381    
     68000   185.8349      -3538174.6      0             -3537629.8      43.480577    
     69000   185.48607     -3538176.2      0             -3537632.5      40.01967     
     70000   185.20075     -3538178        0             -3537635.1      50.802891    
     71000   185.55529     -3538169        0             -3537625        26.701502    
     72000   186.35162     -3538171.8      0             -3537625.6      50.896092    
     73000   184.3053      -3538179.7      0             -3537639.4      54.317604    
     74000   185.77126     -3538182.5      0             -3537637.9      38.60948     
     75000   186.14812     -3538173.2      0             -3537627.5      60.249113    
     76000   183.94659     -3538182.8      0             -3537643.5      55.219232    
     77000   184.37514     -3538179        0             -3537638.6      61.493241    
     78000   185.6527      -3538170.5      0             -3537626.3      29.044355    
     79000   185.68801     -3538182.1      0             -3537637.8      76.979621    
     80000   185.69522     -3538172.9      0             -3537628.5      54.290057    
Loop time of 76957.2 on 1536 procs for 80000 steps with 22680 atoms

Performance: 0.090 ns/day, 267.212 hours/ns, 1.040 timesteps/s, 23.577 katom-step/s
100.0% CPU use with 1536 MPI tasks x 1 OpenMP threads

MPI task timing breakdown:
Section |  min time  |  avg time  |  max time  |%varavg| %total
---------------------------------------------------------------
Pair    | 0.23436    | 9930.4     | 74957      |20840.7 | 12.90
Bond    | 0.005123   | 0.011024   | 0.17666    |  11.3 |  0.00
Neigh   | 0.02905    | 0.4541     | 8.7957     | 201.8 |  0.00
Comm    | 0.9518     | 2786.5     | 39598      |12618.2 |  3.62
Output  | 4.1767     | 12.344     | 21.533     | 151.1 |  0.02
Modify  | 461.22     | 64209      | 76926      |10171.8 | 83.44
Other   |            | 18.21      |            |       |  0.02

Nlocal:        14.7656 ave         236 max           0 min
Histogram: 1326 4 92 35 28 1 6 5 10 29
Nghost:        142.447 ave        2067 max           0 min
Histogram: 1210 164 41 22 36 23 6 8 10 16
Neighs:              0 ave           0 max           0 min
Histogram: 1536 0 0 0 0 0 0 0 0 0
FullNghs:      2251.24 ave       49839 max           0 min
Histogram: 1329 103 30 23 3 5 6 3 15 19

Total # of neighbors = 3457912
Ave neighs/atom = 152.46526
Ave special neighs/atom = 0
Neighbor list builds = 4251
Dangerous builds = 0

write_restart nvt_equi.restart.*
System init for write_restart ...
write_data nvt_equi_final.lammps-data
System init for write_data ...

Total wall time: 21:23:14
