LAMMPS (4 Feb 2025)
OMP_NUM_THREADS environment is not set. Defaulting to 1 thread. (src/comm.cpp:99)
  using 1 OpenMP thread(s) per MPI task
# LAMMPS script for running NVT simulation

units       metal
dimension   3
boundary    p p p
atom_style  full
atom_modify map yes

newton      on

read_data   ../start.lammps-data
Reading data file ...
  orthogonal box = (0 0 0) to (153.62298 147.82378 151.07317)
  16 by 8 by 8 MPI processor grid
  reading atoms ...
  11640 atoms
  reading velocities ...
  11640 velocities
Finding 1-2 1-3 1-4 neighbors ...
  special bond factors lj:    0        0        0       
  special bond factors coul:  0        0        0       
     0 = max # of 1-2 neighbors
     0 = max # of 1-3 neighbors
     0 = max # of 1-4 neighbors
     1 = max # of special neighbors
  special bonds CPU = 5.902 seconds
  read_data CPU = 6.056 seconds

pair_style  symmetrix/mace
pair_coeff  * * ../../../00-common/models/ch2o-dens-inv_swa-1-6-8.json C H O
Loading MACE model from '../../../00-common/models/ch2o-dens-inv_swa-1-6-8.json' ... success
  mapping LAMMPS type 1 (C) to MACE type 1
  mapping LAMMPS type 2 (H) to MACE type 0
  mapping LAMMPS type 3 (O) to MACE type 2

variable t equal step

group graphene type 1
8640 atoms in group graphene
group H2O type 2 3
3000 atoms in group H2O

thermo 1000

######### NVT equilibration for 80 ps #############

dump DUMP1 all atom 100 nvt_equi.lammpstrj
timestep 0.001
fix NVT1 graphene nvt temp 300 300 0.1
fix NVT2 H2O nvt temp 300 300 0.1
run 80000
Neighbor list info ...
  update: every = 1 steps, delay = 0 steps, check = yes
  max neighbors/atom: 2000, page size: 100000
  master list distance cutoff = 8
  ghost atom cutoff = 8
  binsize = 4, bins = 39 37 38
  1 neighbor lists, perpetual/occasional/extra = 1 0 0
  (1) pair symmetrix/mace, perpetual
      attributes: full, newton on
      pair build: full/bin
      stencil: full/bin/3d
      bin: standard
Per MPI rank memory allocation (min/avg/max) = 5.921 | 6.239 | 8.658 Mbytes
   Step          Temp          E_pair         E_mol          TotEng         Press     
         0   78.173347     -1810207.7      0             -1810090.1      742.52098    
      1000   84.86722      -1810198.2      0             -1810070.5      505.56748    
      2000   192.07382     -1810079.7      0             -1809790.8     -745.97924    
      3000   307.45035     -1809970        0             -1809507.5     -920.34793    
      4000   305.09418     -1809938.5      0             -1809479.5     -1108.9062    
      5000   301.16923     -1809948.4      0             -1809495.3     -811.77433    
      6000   302.38624     -1809942.7      0             -1809487.8     -794.92723    
      7000   297.93549     -1809940.4      0             -1809492.2     -741.39895    
      8000   306.4274      -1809934.6      0             -1809473.6     -698.78062    
      9000   305.63181     -1809930.8      0             -1809471       -742.89568    
     10000   296.66127     -1809928.9      0             -1809482.6     -597.9854     
     11000   299.44233     -1809936.7      0             -1809486.2     -666.46806    
     12000   289.86367     -1809939.9      0             -1809503.8     -482.74866    
     13000   309.25215     -1809940.2      0             -1809475       -433.52751    
     14000   303.3599      -1809928.6      0             -1809472.2     -419.60966    
     15000   294.56326     -1809929.5      0             -1809486.4     -401.25244    
     16000   297.9688      -1809930.2      0             -1809481.9     -331.63794    
     17000   301.22518     -1809924.3      0             -1809471.2     -306.57563    
     18000   301.03689     -1809921.7      0             -1809468.8     -318.61318    
     19000   302.36065     -1809927.2      0             -1809472.3     -252.90067    
     20000   298.93027     -1809921.8      0             -1809472       -214.42556    
     21000   298.51839     -1809920.9      0             -1809471.8     -190.69761    
     22000   298.56866     -1809925.5      0             -1809476.3     -129.53735    
     23000   306.1936      -1809922.8      0             -1809462.2     -62.326562    
     24000   299.86154     -1809923        0             -1809471.8     -155.20694    
     25000   298.30864     -1809931.4      0             -1809482.7     -122.40031    
     26000   297.72378     -1809923.4      0             -1809475.5     -73.743375    
     27000   301.26292     -1809920.4      0             -1809467.2     -121.60616    
     28000   299.93895     -1809921.9      0             -1809470.7     -26.095863    
     29000   300.99614     -1809926.7      0             -1809473.9      4.3558466    
     30000   302.70076     -1809923.4      0             -1809468       -19.235108    
     31000   300.00322     -1809929.4      0             -1809478.1     -8.0199274    
     32000   300.13452     -1809930.4      0             -1809478.8     -12.104215    
     33000   299.0173      -1809921.5      0             -1809471.7      30.069215    
     34000   300.26141     -1809929.2      0             -1809477.5      88.339039    
     35000   301.41361     -1809924.4      0             -1809470.9      101.78375    
     36000   296.23674     -1809922.8      0             -1809477.2      113.50912    
     37000   297.2387      -1809921.4      0             -1809474.2      136.88045    
     38000   301.14187     -1809919.7      0             -1809466.7      131.56775    
     39000   302.77777     -1809923        0             -1809467.5      94.447498    
     40000   298.20836     -1809924.7      0             -1809476.1      135.20888    
     41000   299.38873     -1809925.9      0             -1809475.5      162.38928    
     42000   296.83925     -1809923.9      0             -1809477.3      106.353      
     43000   298.47121     -1809924.9      0             -1809475.9      173.93531    
     44000   301.16822     -1809924.7      0             -1809471.6      103.15735    
     45000   300.36523     -1809925.3      0             -1809473.4      124.66692    
     46000   298.19809     -1809924.1      0             -1809475.5      84.856012    
     47000   299.99928     -1809937.1      0             -1809485.7      93.146652    
     48000   298.81555     -1809934.9      0             -1809485.3      118.39606    
     49000   301.57393     -1809926.3      0             -1809472.6      147.09863    
     50000   300.73186     -1809933.8      0             -1809481.3      146.48547    
     51000   301.46622     -1809935.5      0             -1809481.9      164.87845    
     52000   299.62418     -1809927.4      0             -1809476.6      82.115799    
     53000   301.87247     -1809928.4      0             -1809474.2      60.37831     
     54000   301.29789     -1809922.1      0             -1809468.8      59.347918    
     55000   299.71149     -1809927.4      0             -1809476.5      96.682447    
     56000   301.81935     -1809928.3      0             -1809474.2      39.136991    
     57000   303.60201     -1809928.8      0             -1809472.1      77.401605    
     58000   296.27388     -1809929.9      0             -1809484.1      142.76412    
     59000   298.35376     -1809928.5      0             -1809479.6      125.97975    
     60000   304.93576     -1809926.1      0             -1809467.4      99.973311    
     61000   296.55515     -1809928.5      0             -1809482.4      95.566739    
     62000   299.94405     -1809926.7      0             -1809475.4      131.38176    
     63000   300.78145     -1809926.7      0             -1809474.2      120.25888    
     64000   296.56216     -1809926        0             -1809479.9      81.916546    
     65000   295.29011     -1809935.4      0             -1809491.1      69.286314    
     66000   303.34429     -1809934.2      0             -1809477.9      103.54619    
     67000   297.05924     -1809934.9      0             -1809487.9      115.46978    
     68000   305.05759     -1809934.2      0             -1809475.2      115.12042    
     69000   300.76002     -1809930.9      0             -1809478.4      53.532577    
     70000   296.29894     -1809924.7      0             -1809478.9     -6.7884197    
     71000   300.89947     -1809936.2      0             -1809483.5      104.13073    
     72000   298.75474     -1809928.1      0             -1809478.6      132.77988    
     73000   299.59155     -1809930.8      0             -1809480.1      71.922553    
     74000   305.55482     -1809934.4      0             -1809474.7      95.988001    
     75000   299.66965     -1809932.3      0             -1809481.4      81.040692    
     76000   297.58664     -1809936.1      0             -1809488.4      29.370195    
     77000   301.00863     -1809926.2      0             -1809473.4      69.855225    
     78000   301.73703     -1809929.6      0             -1809475.6      62.319855    
     79000   301.37785     -1809930.1      0             -1809476.7      85.707899    
     80000   296.59701     -1809921.8      0             -1809475.6      79.410151    
Loop time of 60382.1 on 1024 procs for 80000 steps with 11640 atoms

Performance: 0.114 ns/day, 209.660 hours/ns, 1.325 timesteps/s, 15.422 katom-step/s
100.0% CPU use with 1024 MPI tasks x 1 OpenMP threads

MPI task timing breakdown:
Section |  min time  |  avg time  |  max time  |%varavg| %total
---------------------------------------------------------------
Pair    | 1379.4     | 5660.3     | 25640      |6709.3 |  9.37
Bond    | 0.0048171  | 0.0078474  | 0.01696    |   2.1 |  0.00
Neigh   | 0.061997   | 0.14374    | 1.3313     |  45.6 |  0.00
Comm    | 30.965     | 2097.2     | 7352.9     |3800.2 |  3.47
Output  | 0.58426    | 5.1697     | 10.355     | 129.6 |  0.01
Modify  | 30776      | 52612      | 58904      |2728.9 | 87.13
Other   |            | 7.638      |            |       |  0.01

Nlocal:        11.3672 ave         346 max           0 min
Histogram: 891 58 58 4 2 4 0 1 1 5
Nghost:        90.7217 ave        1601 max           0 min
Histogram: 775 139 76 15 10 3 0 3 2 1
Neighs:              0 ave           0 max           0 min
Histogram: 1024 0 0 0 0 0 0 0 0 0
FullNghs:      1221.85 ave       66878 max           0 min
Histogram: 1000 8 3 2 4 1 0 0 3 3

Total # of neighbors = 1251176
Ave neighs/atom = 107.48935
Ave special neighs/atom = 0
Neighbor list builds = 3777
Dangerous builds = 0

write_restart nvt_equi.restart.*
System init for write_restart ...
write_data nvt_equi_final.lammps-data
System init for write_data ...

Total wall time: 16:46:48
