LAMMPS (4 Feb 2025)
OMP_NUM_THREADS environment is not set. Defaulting to 1 thread. (src/comm.cpp:99)
  using 1 OpenMP thread(s) per MPI task
# LAMMPS script for running NVT simulation

units       metal
dimension   3
boundary    p p p
atom_style  full
atom_modify map yes

newton      on

read_data   ../start.lammps-data
Reading data file ...
  orthogonal box = (0 0 0) to (152.92994 147.15691 151.07317)
  16 by 8 by 8 MPI processor grid
  reading atoms ...
  11640 atoms
  reading velocities ...
  11640 velocities
Finding 1-2 1-3 1-4 neighbors ...
  special bond factors lj:    0        0        0       
  special bond factors coul:  0        0        0       
     0 = max # of 1-2 neighbors
     0 = max # of 1-3 neighbors
     0 = max # of 1-4 neighbors
     1 = max # of special neighbors
  special bonds CPU = 5.834 seconds
  read_data CPU = 6.049 seconds

pair_style  symmetrix/mace
pair_coeff  * * ../../../00-common/models/ch2o-dens-inv_swa-1-6-8.json C H O
Loading MACE model from '../../../00-common/models/ch2o-dens-inv_swa-1-6-8.json' ... success
  mapping LAMMPS type 1 (C) to MACE type 1
  mapping LAMMPS type 2 (H) to MACE type 0
  mapping LAMMPS type 3 (O) to MACE type 2

variable t equal step

group graphene type 1
8640 atoms in group graphene
group H2O type 2 3
3000 atoms in group H2O

thermo 1000

######### NVT equilibration for 80 ps #############

dump DUMP1 all atom 100 nvt_equi.lammpstrj
timestep 0.001
fix NVT1 graphene nvt temp 300 300 0.1
fix NVT2 H2O nvt temp 300 300 0.1
run 80000
Neighbor list info ...
  update: every = 1 steps, delay = 0 steps, check = yes
  max neighbors/atom: 2000, page size: 100000
  master list distance cutoff = 8
  ghost atom cutoff = 8
  binsize = 4, bins = 39 37 38
  1 neighbor lists, perpetual/occasional/extra = 1 0 0
  (1) pair symmetrix/mace, perpetual
      attributes: full, newton on
      pair build: full/bin
      stencil: full/bin/3d
      bin: standard
Per MPI rank memory allocation (min/avg/max) = 5.921 | 6.239 | 8.649 Mbytes
   Step          Temp          E_pair         E_mol          TotEng         Press     
         0   78.173347     -1810173.2      0             -1810055.6      1602.0064    
      1000   91.673973     -1810169        0             -1810031.1      926.40729    
      2000   260.58831     -1810004        0             -1809612       -589.91781    
      3000   301.71785     -1809940.4      0             -1809486.5     -552.50241    
      4000   300.71034     -1809920.5      0             -1809468.1     -541.79983    
      5000   296.47937     -1809911.4      0             -1809465.4     -432.17798    
      6000   300.11838     -1809904.7      0             -1809453.2     -378.28616    
      7000   301.81751     -1809900.1      0             -1809446       -159.51094    
      8000   298.29971     -1809909.7      0             -1809460.9     -294.05296    
      9000   294.34503     -1809903.6      0             -1809460.7     -99.093186    
     10000   307.25093     -1809901.8      0             -1809439.6      40.320715    
     11000   301.57147     -1809891.4      0             -1809437.7     -56.608642    
     12000   301.99629     -1809883.4      0             -1809429       -78.219868    
     13000   299.52801     -1809895.2      0             -1809444.6     -72.723324    
     14000   299.00439     -1809887.6      0             -1809437.7      44.856602    
     15000   297.02939     -1809884.6      0             -1809437.8      123.09061    
     16000   298.6914      -1809883.3      0             -1809434        154.29274    
     17000   298.91721     -1809883.6      0             -1809433.9      144.71625    
     18000   302.78234     -1809884.8      0             -1809429.3      25.675917    
     19000   295.21905     -1809889.2      0             -1809445       -11.960175    
     20000   300.81628     -1809884.7      0             -1809432.1      68.633475    
     21000   304.42384     -1809884.9      0             -1809426.9      40.119021    
     22000   299.99286     -1809886.9      0             -1809435.6      154.65962    
     23000   295.22244     -1809875.2      0             -1809431        69.781874    
     24000   300.40561     -1809888.6      0             -1809436.6      84.917258    
     25000   299.52395     -1809884.5      0             -1809433.9     -4.0911726    
     26000   297.31682     -1809885.9      0             -1809438.6      48.907268    
     27000   300.6024      -1809882.5      0             -1809430.3      59.763986    
     28000   296.66506     -1809881.3      0             -1809435        186.90906    
     29000   298.4216      -1809890.3      0             -1809441.3      162.13082    
     30000   299.40896     -1809881.9      0             -1809431.5      104.72979    
     31000   301.1375      -1809886.5      0             -1809433.5      154.38868    
     32000   300.04516     -1809882.2      0             -1809430.8      61.918542    
     33000   299.33477     -1809884.3      0             -1809434        28.528465    
     34000   298.01928     -1809895.1      0             -1809446.8      87.179375    
     35000   304.15579     -1809889.1      0             -1809431.5      67.247268    
     36000   302.27074     -1809892.2      0             -1809437.4      72.541298    
     37000   301.8212      -1809884.4      0             -1809430.3      169.53864    
     38000   301.64719     -1809887.6      0             -1809433.8      124.883      
     39000   298.65693     -1809888        0             -1809438.7     -4.9559324    
     40000   301.00043     -1809887.8      0             -1809434.9      150.6387     
     41000   299.99357     -1809886.8      0             -1809435.5      28.846914    
     42000   298.64799     -1809892.5      0             -1809443.1      87.691708    
     43000   299.40928     -1809888.5      0             -1809438.1      26.452533    
     44000   301.78517     -1809890.3      0             -1809436.3      86.035588    
     45000   299.94007     -1809890.7      0             -1809439.4      154.51246    
     46000   299.49575     -1809890.1      0             -1809439.6      100.8111     
     47000   301.86699     -1809881.9      0             -1809427.7      54.352056    
     48000   300.4515      -1809887.8      0             -1809435.7      68.1465      
     49000   301.7451      -1809888.9      0             -1809435        31.576918    
     50000   302.40568     -1809882.8      0             -1809427.8      97.399675    
     51000   301.64203     -1809884.1      0             -1809430.3      105.55794    
     52000   298.63811     -1809887.9      0             -1809438.6      56.014663    
     53000   300.30091     -1809885.5      0             -1809433.7      16.136611    
     54000   296.17808     -1809889.9      0             -1809444.3      59.523143    
     55000   298.3542      -1809894.5      0             -1809445.6      42.26511     
     56000   297.7699      -1809883.8      0             -1809435.8      100.59988    
     57000   302.23928     -1809888.7      0             -1809434        68.013493    
     58000   297.31498     -1809893.1      0             -1809445.8      19.905294    
     59000   296.8729      -1809884.8      0             -1809438.2      87.985681    
     60000   299.65174     -1809887.6      0             -1809436.8      83.543504    
     61000   302.79388     -1809893        0             -1809437.4     -2.1064688    
     62000   297.06428     -1809890.3      0             -1809443.3      42.799381    
     63000   302.08908     -1809886.5      0             -1809432.1      87.381177    
     64000   300.34762     -1809884.2      0             -1809432.3      58.138028    
     65000   293.99117     -1809892.3      0             -1809450        47.868887    
     66000   301.39993     -1809894        0             -1809440.6      99.594415    
     67000   304.75564     -1809885.3      0             -1809426.8      33.827605    
     68000   298.3102      -1809888.9      0             -1809440.1      35.335916    
     69000   298.87436     -1809886.9      0             -1809437.2      34.666829    
     70000   297.51227     -1809887        0             -1809439.4      45.65428     
     71000   296.81702     -1809890.4      0             -1809443.8      58.241684    
     72000   298.85975     -1809889.5      0             -1809439.9      81.768309    
     73000   298.60014     -1809888.6      0             -1809439.4      77.935391    
     74000   300.66752     -1809893.7      0             -1809441.3      64.39146     
     75000   299.37033     -1809896.1      0             -1809445.7      56.197596    
     76000   296.45999     -1809882.4      0             -1809436.4      65.992383    
     77000   304.26815     -1809893.7      0             -1809435.9      95.319763    
     78000   303.56884     -1809884.8      0             -1809428.1      81.452193    
     79000   297.61358     -1809891.7      0             -1809444        82.409017    
     80000   300.50522     -1809886.5      0             -1809434.4      46.111413    
Loop time of 59681 on 1024 procs for 80000 steps with 11640 atoms

Performance: 0.116 ns/day, 207.226 hours/ns, 1.340 timesteps/s, 15.603 katom-step/s
100.0% CPU use with 1024 MPI tasks x 1 OpenMP threads

MPI task timing breakdown:
Section |  min time  |  avg time  |  max time  |%varavg| %total
---------------------------------------------------------------
Pair    | 0.1606     | 5746       | 34486      |9038.2 |  9.63
Bond    | 0.0032023  | 0.0079694  | 0.021681   |   3.8 |  0.00
Neigh   | 0.020478   | 0.14663    | 1.9522     |  60.9 |  0.00
Comm    | 0.50617    | 2131.8     | 10917      |5217.1 |  3.57
Output  | 0.60546    | 5.296      | 10.481     | 129.9 |  0.01
Modify  | 20074      | 51790      | 59667      |3794.8 | 86.78
Other   |            | 7.57       |            |       |  0.01

Nlocal:        11.3672 ave         288 max           0 min
Histogram: 888 2 112 4 4 4 1 3 2 4
Nghost:        89.0361 ave        1563 max           0 min
Histogram: 778 162 54 9 6 7 1 5 0 2
Neighs:              0 ave           0 max           0 min
Histogram: 1024 0 0 0 0 0 0 0 0 0
FullNghs:      1219.94 ave       57366 max           0 min
Histogram: 990 15 3 4 3 2 0 3 1 3

Total # of neighbors = 1249220
Ave neighs/atom = 107.32131
Ave special neighs/atom = 0
Neighbor list builds = 3856
Dangerous builds = 0

write_restart nvt_equi.restart.*
System init for write_restart ...
write_data nvt_equi_final.lammps-data
System init for write_data ...

Total wall time: 16:35:06
