LAMMPS data file via write_data, version 4 Feb 2025, timestep = 80000, units = metal

11640 atoms
3 atom types

0 152.92994399999998 xlo xhi
0 147.156907225924 ylo yhi
0 151.07316997686289 zlo zhi

Masses

1 12.01099999691024
2 1.007999999740698
3 15.99899999588435

Atoms # full

5790 0 1 0 1.3071159379211668 3.664471602092847 83.69347124640497 1 0 0
6029 0 1 0 4.097468963429277 3.672600227949189 83.29841788146437 1 0 0
6025 0 1 0 4.023489148393838 1.2602009127784406 82.87768394926015 1 0 0
5801 0 1 0 0.13679976707831168 10.80368577057084 85.64662994358552 1 0 0
5792 0 1 0 3.3577050799187456 2.4633616793955855 83.1619888434379 1 0 0
5791 0 1 0 1.9429450523198926 2.4528605732206317 83.35925102044716 1 0 0
5810 0 1 0 1.679839261869338 15.661598662811858 86.51884662108475 1 0 0
5786 0 1 0 1.2631909454751276 1.2069224275515305 83.32218757255339 1 0 0
5805 0 1 0 0.1812854832930622 13.198647130452684 86.14090131910106 1 0 0
6054 0 1 0 5.909474808386548 18.09205068121341 86.61734745843557 1 0 0
6265 0 1 0 8.347002847405324 1.2291250175684871 82.39515471733282 1 0 0
5809 0 1 0 0.23341543245411278 15.694911722928726 86.51726579661593 1 0 0
6026 0 1 0 5.432915633190126 1.223585900344825 82.69125332269908 1 0 0
6030 0 1 0 5.543927042751636 3.698983451978342 83.0959002903499 1 0 0
6031 0 1 0 6.214834648639169 2.4600892464800186 82.77787915751044 1 0 0
6032 0 1 0 7.645243831524568 2.455025146364065 82.63282205862203 1 0 0
6269 0 1 0 8.416637942258664 3.6279804954521686 82.87931522740598 1 0 0
5813 0 1 0 0.24891747481148335 18.09240518261714 87.0594882049113 1 0 0
6033 0 1 0 4.189953002819763 6.043823067165777 83.77788758725082 1 0 0
5796 0 1 0 3.4172722729910276 4.875005948473051 83.58807610909693 1 0 0
5800 0 1 0 3.5473148321414434 7.259714743598258 84.19206690804172 1 0 0
6037 0 1 0 4.332020346524194 8.465263104530388 84.43254867582652 1 0 0
5799 0 1 0 2.153081035742826 7.2517071040360745 84.4419592907991 1 0 0
5795 0 1 0 2.0654287546869825 4.885455976800519 83.8177298875647 1 0 0
5798 0 1 0 1.454648360239909 8.457250822942793 84.80862649335083 1 0 0
5794 0 1 0 1.391615452219876 6.03665246664538 84.27235468872651 1 0 0
6034 0 1 0 5.578236742951767 6.095325262396283 83.67650003242844 1 0 0
6038 0 1 0 5.745655070065858 8.402374980911695 84.23863457910919 1 0 0
6035 0 1 0 6.2727008300565394 4.866467145297462 83.34737936764112 1 0 0
6036 0 1 0 7.691898454147105 4.883383454432766 83.22289758041283 1 0 0
6039 0 1 0 6.417767791789281 7.188087968011123 83.92809878701435 1 0 0
6040 0 1 0 7.8495091823090135 7.20759234355256 83.83407074592719 1 0 0
6273 0 1 0 8.43157465535133 6.022023975699333 83.44812324301331 1 0 0
5815 0 1 0 2.399594144296884 16.908823750173855 86.7076931217116 1 0 0
6277 0 1 0 8.54916246227519 8.462242281664594 83.87331846155493 1 0 0
5816 0 1 0 3.8223868947653172 16.890730496566654 86.56719517330785 1 0 0
6041 0 1 0 4.336524596121005 10.83671781728452 85.08448069831573 1 0 0
5808 0 1 0 3.655436971005072 12.033661444564316 85.4197999259451 1 0 0
5804 0 1 0 3.5899709820014407 9.655748634661515 84.80735851666982 1 0 0
6045 0 1 0 4.420025197912391 13.232836727364917 85.58925965211898 1 0 0
5803 0 1 0 2.2279497664121832 9.607775216437208 85.05693562047954 1 0 0
5807 0 1 0 2.248126657849686 11.972698765970305 85.66797937085977 1 0 0
5806 0 1 0 1.590005501636877 13.239771289281297 85.99007358239432 1 0 0
5802 0 1 0 1.4964419586180695 10.777190256223987 85.49369100823024 1 0 0
6042 0 1 0 5.767402940400724 10.786844882226966 84.9807619852171 1 0 0
6046 0 1 0 5.785251288054207 13.205928731258545 85.37464280889581 1 0 0
6047 0 1 0 6.513597490570981 12.019326331500197 85.09644989957647 1 0 0
6043 0 1 0 6.474624672236062 9.583473215734365 84.53831246699309 1 0 0
6285 0 1 0 8.652738542200034 13.258653023109098 85.06787982854141 1 0 0
6293 0 1 0 8.754780069551925 18.099832741693007 86.08358732144805 1 0 0
6053 0 1 0 4.4947164172115865 18.08484531150647 86.75149242894891 1 0 0
6048 0 1 0 7.91290954588238 12.003977101066832 84.90437241341763 1 0 0
6044 0 1 0 7.855619651040458 9.633421846307941 84.32413238957469 1 0 0
6281 0 1 0 8.599598854578865 10.879550639226707 84.53890580007065 1 0 0
5812 0 1 0 3.7157556869777504 14.387100616998124 86.00485963125156 1 0 0
6049 0 1 0 4.441560756693658 15.641995308611609 86.23045228349217 1 0 0
5811 0 1 0 2.3269845888839047 14.439357987304932 86.10312810281052 1 0 0
6055 0 1 0 6.595874663089436 16.861556045329987 86.23584526866188 1 0 0
6056 0 1 0 7.9901482649501965 16.905805629662893 85.97993150096399 1 0 0
6051 0 1 0 6.556531981035083 14.406020412365125 85.60765654946955 1 0 0
5814 0 1 0 1.6584389655923937 18.086151399085132 86.95982405720441 1 0 0
6050 0 1 0 5.871656583598816 15.607848078465485 86.01331109184437 1 0 0
6289 0 1 0 8.669047497520328 15.712015283433452 85.53320602109862 1 0 0
6052 0 1 0 7.945302286515708 14.431154134997549 85.44053819610306 1 0 0
5797 0 1 0 0.03875601336266781 8.420484105539073 84.9698325698638 1 0 0
6028 0 1 0 7.584428017373979 0.044098781730515575 82.2771586418015 1 0 0
6057 0 1 0 4.59915257334508 20.54598082278283 87.19071041130053 1 0 0
5824 0 1 0 3.9143060357251764 21.77704023600223 87.40082191034969 1 0 0
5820 0 1 0 3.853238668083155 19.33205687632379 87.04105453737512 1 0 0
5823 0 1 0 2.4775980463299514 21.765770486301964 87.44479372943178 1 0 0
5819 0 1 0 2.4341899678981136 19.328947386995328 87.13697215778681 1 0 0
5818 0 1 0 1.7506721114146937 20.545088449166094 87.43368343347625 1 0 0
6059 0 1 0 6.682799980341179 19.2731163252642 86.83092308790278 1 0 0
6060 0 1 0 8.095825765852657 19.26562378253924 86.58176123387094 1 0 0
6297 0 1 0 8.836952190809164 20.47513754978313 86.66229027374683 1 0 0
6064 0 1 0 8.140664991845957 21.712529432851806 87.0660238856174 1 0 0
6082 0 1 0 6.148412628830443 35.2945019160167 89.17348372920452 1 0 0
6058 0 1 0 6.013280134885499 20.502922455555844 87.09240162563462 1 0 0
6063 0 1 0 6.723220757510948 21.71959174675513 87.24236730102976 1 0 0
6061 0 1 0 4.63632332811488 22.944867430334604 87.65571553516396 1 0 0
6065 0 1 0 4.6697514004565335 25.414234217661836 88.01798310235291 1 0 0
5828 0 1 0 3.92782904749192 24.13353030237931 87.9840161083659 1 0 0
5827 0 1 0 2.5027831658978523 24.145796056969864 87.92548137206265 1 0 0
5822 0 1 0 1.7597735959389487 22.959793499164345 87.77109621412548 1 0 0
5826 0 1 0 1.8161212121058046 25.442799683301537 88.06361478559737 1 0 0
5832 0 1 0 3.9658628076387528 26.609729270400628 88.29294192269802 1 0 0
5831 0 1 0 2.556406805898746 26.637413215709056 88.22923685102027 1 0 0
6066 0 1 0 6.078157480096845 25.373043117304306 87.96193622178511 1 0 0
6062 0 1 0 6.078897797444875 22.946399402911112 87.50688356461286 1 0 0
6067 0 1 0 6.785435200851753 24.147208729386804 87.6606350662007 1 0 0
6071 0 1 0 6.8340669490363135 26.600153957885404 87.95138834057074 1 0 0
6301 0 1 0 8.92931035214299 22.938160562079485 87.09341693369541 1 0 0
6068 0 1 0 8.182550536036128 24.131650459839165 87.34188443790185 1 0 0
6305 0 1 0 8.893342546372228 25.379394423294695 87.44701931550199 1 0 0
6072 0 1 0 8.239703688271874 26.605515524923526 87.69703873693037 1 0 0
6084 0 1 0 8.248621636783447 34.038224232824746 88.75848575246633 1 0 0
5834 0 1 0 1.852592765328874 30.353660978974478 88.85222824333171 1 0 0
5830 0 1 0 1.886405578842159 27.86808113620906 88.39664090149157 1 0 0
6069 0 1 0 4.734092621588712 27.783097363650338 88.55099608704428 1 0 0
5836 0 1 0 4.029515046009731 29.011545545591744 88.70725478192381 1 0 0
6073 0 1 0 4.727988343780206 30.251593555444376 88.83178178236497 1 0 0
5839 0 1 0 2.59101267356189 31.55880695008912 89.09836730968306 1 0 0
5835 0 1 0 2.5987474988723727 29.112111870597573 88.61780807563021 1 0 0
5840 0 1 0 3.99833338072802 31.533505676958345 89.02286534909445 1 0 0
6070 0 1 0 6.123970143197585 27.807762504224435 88.32992522775635 1 0 0
6075 0 1 0 6.830204939174405 29.051754909383213 88.34265197346683 1 0 0
6074 0 1 0 6.170520900913266 30.322253156057087 88.57092909168485 1 0 0
6076 0 1 0 8.210375497484035 29.098647061021715 88.07141026683465 1 0 0
6309 0 1 0 8.92101097629618 27.899830304867933 87.79130348240145 1 0 0
6313 0 1 0 8.917963667676998 30.343313647229106 88.14571422598043 1 0 0
6080 0 1 0 8.272541548351144 31.571281616605226 88.51507585908026 1 0 0
6079 0 1 0 6.874848024319482 31.5562245400002 88.74869081362802 1 0 0
5848 0 1 0 4.042726921992091 36.563719414776095 89.527268378371 1 0 0
5838 0 1 0 1.8917497804881362 32.817922887139375 89.07113312648852 1 0 0
5842 0 1 0 1.873447416169709 35.29943800532495 89.34461616693625 1 0 0
5844 0 1 0 3.996533571453705 34.06100502279764 89.3368140236221 1 0 0
6081 0 1 0 4.7206301052092385 35.30154825473464 89.394741678639 1 0 0
6077 0 1 0 4.6746397597292635 32.8036922284157 89.11654790288328 1 0 0
5843 0 1 0 2.5865102664923976 34.08599361567254 89.20855273797245 1 0 0
5847 0 1 0 2.6121247321785157 36.57641427215989 89.52227085051092 1 0 0
6083 0 1 0 6.846839022473353 33.99177275008891 88.95380637858422 1 0 0
6087 0 1 0 6.852999404405634 36.5444949233094 89.11554510148773 1 0 0
6078 0 1 0 6.096030492755975 32.77168003778136 88.95603018875254 1 0 0
6321 0 1 0 8.979859491868364 35.26350898528754 88.779515064296 1 0 0
6317 0 1 0 8.971267073590939 32.8229822945115 88.47370777321433 1 0 0
6088 0 1 0 8.350929813649936 36.50656638787281 88.88377193536911 1 0 0
5841 0 1 0 0.4854527005372036 35.347968036231165 89.19307558838992 1 0 0
5837 0 1 0 0.4666177108515355 32.8254440072633 88.9839377817808 1 0 0
5833 0 1 0 0.4415443013541614 30.339895375907012 88.78256599204013 1 0 0
5825 0 1 0 0.4049668777243922 25.454992890107583 88.1695810770045 1 0 0
5829 0 1 0 0.4440082501216881 27.905628866279166 88.42120564915746 1 0 0
5821 0 1 0 0.3555688024918803 22.993660296401938 87.87049660365778 1 0 0
5817 0 1 0 0.3157568232650765 20.527958806294677 87.58578493970113 1 0 0
6085 0 1 0 4.77715948095553 37.762614327548654 89.4445507861751 1 0 0
6089 0 1 0 4.816089389738976 40.229698393968434 89.50848901377678 1 0 0
5852 0 1 0 4.072837309198298 38.967421385287814 89.60546267150666 1 0 0
5851 0 1 0 2.662171292520226 39.03368329122293 89.57053193110022 1 0 0
5846 0 1 0 1.907328810671994 37.792864948143965 89.47234868344955 1 0 0
5850 0 1 0 1.9612896550239867 40.28535667428641 89.54557256264414 1 0 0
6091 0 1 0 6.910938954630207 38.987559897313815 89.17362133175361 1 0 0
6086 0 1 0 6.1799099117484975 37.69412669226964 89.2137283797867 1 0 0
6090 0 1 0 6.226120906415699 40.25479661457622 89.31792823222436 1 0 0
6092 0 1 0 8.330545476769085 38.979866379364665 88.96174730421383 1 0 0
6325 0 1 0 9.036916434118877 37.731994258950195 88.81417622657507 1 0 0
6329 0 1 0 9.082233139635623 40.20329623908534 88.85699056084079 1 0 0
5858 0 1 0 1.9884264029983387 45.173875538077425 89.10245813921617 1 0 0
6093 0 1 0 4.807954579757327 42.714615408572044 89.11632247037517 1 0 0
5856 0 1 0 4.085385961392412 41.52043838802448 89.35998737260873 1 0 0
5860 0 1 0 4.1078020769528445 43.94232887080305 89.15488156678227 1 0 0
6097 0 1 0 4.80500394601767 45.19370293591888 89.13591668092417 1 0 0
5859 0 1 0 2.679860828725148 43.96467627396317 89.14501658984808 1 0 0
5855 0 1 0 2.656386745266926 41.48043830851335 89.32335508267909 1 0 0
5854 0 1 0 1.9665795827596684 42.73378879793661 89.16279807084989 1 0 0
6099 0 1 0 6.933299085241631 43.90454595623357 89.00102657189841 1 0 0
6095 0 1 0 6.949575543700607 41.4370248447141 89.0741222869941 1 0 0
6094 0 1 0 6.248210092988699 42.69267903166636 89.07418708026727 1 0 0
6098 0 1 0 6.258764494792335 45.132809105448445 89.0478192959936 1 0 0
6100 0 1 0 8.360212199959843 43.90473978865586 88.78079621125521 1 0 0
6096 0 1 0 8.36631586822251 41.4280362612418 88.8190935173365 1 0 0
6333 0 1 0 9.041204977277761 42.641514448944406 88.66820436544842 1 0 0
6337 0 1 0 9.05487296452393 45.128853479643006 88.69450893404611 1 0 0
5862 0 1 0 1.9376860046214455 47.60092195216687 89.15896012326013 1 0 0
5868 0 1 0 4.118383074795963 48.831752456211895 89.14303410289267 1 0 0
6101 0 1 0 4.836489340289484 47.63388879571615 89.2475429032547 1 0 0
5864 0 1 0 4.13219858036169 46.42122691698636 89.19797397751618 1 0 0
5867 0 1 0 2.671064434885805 48.808361358486216 89.16529245654827 1 0 0
5863 0 1 0 2.679695555943091 46.397762388053124 89.18967587973229 1 0 0
6105 0 1 0 4.791622593729888 50.09436602298248 89.08999304500114 1 0 0
5866 0 1 0 1.9493810023968574 50.0131597713865 89.14805362379856 1 0 0
6106 0 1 0 6.240475661955133 50.11014868658579 89.06223874984833 1 0 0
6102 0 1 0 6.255951486198005 47.646101879589196 89.13897983217389 1 0 0
6107 0 1 0 6.940236261031304 48.86893587817536 89.12626996594074 1 0 0
6103 0 1 0 6.942628177066249 46.38963895037566 89.01347246651386 1 0 0
6108 0 1 0 8.344293249731066 48.85064809070763 88.98094542489449 1 0 0
6104 0 1 0 8.345173171114054 46.421609413521296 88.85318268863959 1 0 0
6341 0 1 0 9.096404062613876 47.630135748843614 88.86940301086933 1 0 0
6345 0 1 0 9.025743447399234 50.10387316734521 88.63606270004587 1 0 0
5876 0 1 0 4.058113246297322 53.75517459952445 88.96837738001842 1 0 0
5875 0 1 0 2.669707877229213 53.757323993032976 89.05705386450461 1 0 0
6109 0 1 0 4.787191127856925 52.53525347147569 88.87194041146542 1 0 0
5871 0 1 0 2.6529998413801557 51.29576747901771 89.034327113958 1 0 0
5870 0 1 0 1.9244670151397079 52.508525280406644 89.08532723018726 1 0 0
5872 0 1 0 4.086210964895044 51.33416543874458 88.96221498421947 1 0 0
6349 0 1 0 9.024863570487376 52.523474481143786 88.532900482144 1 0 0
6115 0 1 0 6.931935264981882 53.80199502194299 88.77775587365966 1 0 0
6111 0 1 0 6.918753516605884 51.36226783793936 88.9603493518978 1 0 0
6112 0 1 0 8.31822324957405 51.275923194168485 88.69269112926722 1 0 0
6116 0 1 0 8.360007601635216 53.77063746415968 88.49939233438431 1 0 0
6110 0 1 0 6.191154143660265 52.59579362113345 88.91482689336307 1 0 0
5874 0 1 0 1.9197481826810707 55.02225543575726 89.05024478152383 1 0 0
5873 0 1 0 0.46001388770611507 55.02077444755342 89.02122006841904 1 0 0
6114 0 1 0 6.188984250924633 54.99426635122798 88.71982935805202 1 0 0
6353 0 1 0 8.97728737450848 55.03435893399357 88.34189908654722 1 0 0
5845 0 1 0 0.4888004177432227 37.79448271278359 89.4170859167422 1 0 0
5849 0 1 0 0.470797550047369 40.28577406220861 89.41421962699384 1 0 0
5853 0 1 0 0.5454439039215961 42.72589536126919 89.11079143086667 1 0 0
5857 0 1 0 0.5340965656673528 45.14481467546683 88.9894327980593 1 0 0
5865 0 1 0 0.5354749888725578 50.05837870307063 89.13529776154591 1 0 0
5861 0 1 0 0.520211979753518 47.62163456437325 89.05158510782898 1 0 0
5869 0 1 0 0.5344741054625564 52.55693789824285 89.226754069046 1 0 0
6113 0 1 0 4.775521417361617 54.98422569386377 88.90225470771414 1 0 0
5877 0 1 0 0.4230185310632811 57.5163601600014 88.92650156629982 1 0 0
6144 0 1 0 8.042620364250533 71.10682090590909 86.77296224223214 1 0 0
6117 0 1 0 4.737259235636797 57.56134383191408 88.7792326842271 1 0 0
6377 0 1 0 8.764510670920354 69.83297052826639 86.69675144711019 1 0 0
5884 0 1 0 3.972649508836872 58.77371513307597 88.70182726963378 1 0 0
5880 0 1 0 4.071173595474924 56.24663178880311 88.824566986574 1 0 0
5879 0 1 0 2.655833829116396 56.23649446606637 88.93278954727562 1 0 0
5883 0 1 0 2.5323199669167513 58.75653075355038 88.79128360007948 1 0 0
5878 0 1 0 1.882712755879458 57.52952250042679 88.88608932711892 1 0 0
6118 0 1 0 6.117424784509542 57.49136494083434 88.62068731516324 1 0 0
6119 0 1 0 6.8114659592489835 56.2517817455331 88.51417395562933 1 0 0
6123 0 1 0 6.842005069667313 58.73507649546285 88.52166887617734 1 0 0
6120 0 1 0 8.232588179551396 56.26079628127173 88.44322382133747 1 0 0
6381 0 1 0 8.775100628586863 72.27011207629509 86.49540796327699 1 0 0
6357 0 1 0 8.946953335811815 57.5140214874463 88.20155313358295 1 0 0
6124 0 1 0 8.246544342273479 58.771722574248706 88.29093133928508 1 0 0
5882 0 1 0 1.8175705784582086 59.978414482586395 88.93596325219437 1 0 0
5886 0 1 0 1.7733649926981963 62.4585285389419 88.74786593443615 1 0 0
5888 0 1 0 3.943929143186377 61.26055735570456 88.62614720081956 1 0 0
6121 0 1 0 4.691247611774892 59.979019180431926 88.6699712143199 1 0 0
6125 0 1 0 4.651257853751468 62.51311485161286 88.36941081412228 1 0 0
5892 0 1 0 3.9100675349751466 63.76591013513928 88.37452757040322 1 0 0
5891 0 1 0 2.4901324415141404 63.69798904789603 88.51898437612371 1 0 0
5887 0 1 0 2.514495067940986 61.28185944174857 88.83417963608423 1 0 0
6122 0 1 0 6.088463018435819 59.9874890550838 88.52267509869652 1 0 0
6126 0 1 0 6.069012066310985 62.47101376380551 88.35327105088653 1 0 0
6127 0 1 0 6.783512793519124 61.23035288420174 88.38924519798643 1 0 0
6131 0 1 0 6.785914543626293 63.70411117562234 88.1003521839475 1 0 0
6128 0 1 0 8.216039455584625 61.24297343028931 88.18065128512063 1 0 0
6361 0 1 0 8.993899990162321 59.99612307578485 88.16034882382067 1 0 0
6365 0 1 0 8.920788271547941 62.491136472825815 87.88917991130354 1 0 0
6132 0 1 0 8.172886841825667 63.7385618139431 87.85094716463837 1 0 0
5890 0 1 0 1.8074063842808934 64.94106027782186 88.41661151366199 1 0 0
5894 0 1 0 1.7879207677194449 67.40391934765597 88.26941600538366 1 0 0
5896 0 1 0 3.96200069952496 66.21715594853515 88.09009234387543 1 0 0
6133 0 1 0 4.649232118287428 67.43440709893343 87.82812969735303 1 0 0
6129 0 1 0 4.647670180608777 64.99160187819258 88.05635648486081 1 0 0
5895 0 1 0 2.562728730026464 66.21203881781612 88.26875482540063 1 0 0
5900 0 1 0 3.9099119400071918 68.69091918839104 87.86541301075458 1 0 0
5899 0 1 0 2.484691253212051 68.64698895795415 88.09268402982899 1 0 0
6139 0 1 0 6.6696175023694675 68.62257020885336 87.27035750949645 1 0 0
6134 0 1 0 6.051044186174104 67.39891050108324 87.53171165027709 1 0 0
6130 0 1 0 6.073224973267351 64.9203051633827 87.84241524952681 1 0 0
6373 0 1 0 8.790301515495026 67.37749253045324 86.97929984767511 1 0 0
6138 0 1 0 5.96894848164291 69.87154860020449 87.23263860051269 1 0 0
6140 0 1 0 8.098517550733662 68.61650613357811 87.00924837444391 1 0 0
6135 0 1 0 6.7610481377691665 66.15609494184532 87.5881439910525 1 0 0
6136 0 1 0 8.134382515796299 66.18497427035386 87.34606307103519 1 0 0
6369 0 1 0 8.827028117195793 64.92111154582946 87.49077428230558 1 0 0
5904 0 1 0 3.8596411714800807 71.10886579440886 87.39373189254225 1 0 0
5903 0 1 0 2.4275896639944303 71.07750862444998 87.61637189107346 1 0 0
6137 0 1 0 4.569603527385541 69.89276243091003 87.54061935248173 1 0 0
6141 0 1 0 4.567382882566098 72.32812617475827 87.06529173539236 1 0 0
5902 0 1 0 1.7221295821918596 72.30373837092594 87.66021785503392 1 0 0
5898 0 1 0 1.7552187417495135 69.84457104173646 87.95167622459617 1 0 0
6142 0 1 0 5.958920070954995 72.2966232317633 86.89642768790381 1 0 0
6143 0 1 0 6.661122793866134 71.0921903774013 86.94150851185648 1 0 0
5885 0 1 0 0.38878284028552773 62.50545599942229 88.89358504694441 1 0 0
6148 0 1 0 8.070375085530909 73.52971308057568 86.52757545399577 1 0 0
5881 0 1 0 0.41681739368137793 60.010873418745405 89.0254426391082 1 0 0
5901 0 1 0 0.2954431054657282 72.27893837586343 87.77383250736506 1 0 0
6147 0 1 0 6.657452783621001 73.53925098517308 86.73157224548504 1 0 0
5889 0 1 0 0.37933478281233785 64.91122324092647 88.53412470870147 1 0 0
5893 0 1 0 0.37757695451910683 67.40210101427402 88.41577545376633 1 0 0
5897 0 1 0 0.34942037707202195 69.87015656669219 88.27844999533484 1 0 0
5907 0 1 0 2.4189600921310577 73.53311082598553 87.43832357430482 1 0 0
5919 0 1 0 2.2749942759385733 80.84764854823078 86.16882477158984 1 0 0
6389 0 1 0 8.75824393406246 77.11148615608475 85.90182859441788 1 0 0
6173 0 1 0 4.119650658974499 91.83417575304298 84.35353816962514 1 0 0
6157 0 1 0 4.403422403184617 82.09957005854882 85.85937480822014 1 0 0
6158 0 1 0 5.781882406077199 82.07421563518118 85.71362107073703 1 0 0
6159 0 1 0 6.56154617584934 80.86683895922583 85.8355359797454 1 0 0
6160 0 1 0 7.944420724916364 80.83192842230224 85.59500084843013 1 0 0
6156 0 1 0 8.036925905879945 78.38637056274145 85.82651423084658 1 0 0
6174 0 1 0 5.547630573134805 91.85361910879416 84.13988850638667 1 0 0
6393 0 1 0 8.721414201092406 79.58542241713394 85.53164438601353 1 0 0
6413 0 1 0 8.368422790262718 91.86558152760921 83.71628180415365 1 0 0
6397 0 1 0 8.6523779155127 82.06672907251003 85.456719820432 1 0 0
5926 0 1 0 1.526868508340747 86.94663815152681 85.45263190716432 1 0 0
6161 0 1 0 4.368134051537151 84.48369002798619 85.5304998839421 1 0 0
5924 0 1 0 3.6279291933950217 83.28551455274564 85.85697658549643 1 0 0
5928 0 1 0 3.6255291797368385 85.7428012141279 85.32350870221347 1 0 0
5923 0 1 0 2.218750486982036 83.30046218786639 85.93142638125377 1 0 0
5927 0 1 0 2.2291335577493356 85.71693243992354 85.55034209061313 1 0 0
6165 0 1 0 4.343348074164124 86.92833997275268 85.08450405281535 1 0 0
5922 0 1 0 1.4537904642893271 84.54556387158392 85.7753208237506 1 0 0
6162 0 1 0 5.739650496324424 84.48364913176673 85.44041984811474 1 0 0
6166 0 1 0 5.73219798932562 86.93254751364177 85.01728001933442 1 0 0
6163 0 1 0 6.483204630991907 83.27631868394552 85.57144951432727 1 0 0
6167 0 1 0 6.477692964263216 85.65504128656474 85.09917280945096 1 0 0
5915 0 1 0 2.3184723932025184 78.42953745066896 86.68067298295347 1 0 0
6164 0 1 0 7.916023675945008 83.33030845887544 85.44615412929637 1 0 0
6168 0 1 0 7.8837976541874095 85.75700634050312 84.96602228199522 1 0 0
6401 0 1 0 8.6358545439497 84.53098591336891 85.150286234428 1 0 0
5916 0 1 0 3.753015934204528 78.43239535800969 86.57826580829672 1 0 0
6405 0 1 0 8.47372310186185 87.02917127537258 84.67458786220483 1 0 0
5935 0 1 0 2.070445938436581 90.65448877026907 84.81102639356517 1 0 0
5930 0 1 0 1.40732993258674 89.39487103638686 85.03335990789486 1 0 0
5932 0 1 0 3.5988937272284804 88.16974193655552 85.02814395272016 1 0 0
5936 0 1 0 3.4689205964286263 90.64684891196798 84.65552945269776 1 0 0
6169 0 1 0 4.22810978168589 89.43860823215206 84.74750510625957 1 0 0
5931 0 1 0 2.1852324748815577 88.15799401338903 85.17279324842345 1 0 0
6175 0 1 0 6.318818795516449 90.65259337021392 84.22227108578599 1 0 0
6409 0 1 0 8.46760168115995 89.43026049537947 84.13855768213828 1 0 0
6172 0 1 0 7.783771080030241 88.22626753381579 84.49507956774589 1 0 0
5934 0 1 0 1.311790930044151 91.88775571840904 84.86636516279192 1 0 0
6176 0 1 0 7.73316186738319 90.68465552174214 84.04700839796968 1 0 0
6171 0 1 0 6.387720335955124 88.17254676353967 84.70050358262596 1 0 0
6170 0 1 0 5.632713731415874 89.44372701207399 84.61273533750544 1 0 0
6145 0 1 0 4.529360767341641 74.77736991217525 86.9454813813763 1 0 0
5912 0 1 0 3.8109785963261307 76.04106394734069 86.96996666138939 1 0 0
6155 0 1 0 6.57522936639581 78.46159340003175 86.1236248222694 1 0 0
6149 0 1 0 4.4863225631911305 77.19614429903982 86.67072523934745 1 0 0
5914 0 1 0 1.5793354900879295 79.66363374750202 86.47250770929834 1 0 0
5911 0 1 0 2.332496262413914 76.03074062345507 87.13987766071433 1 0 0
5906 0 1 0 1.6677923794719276 74.77613236078979 87.37223274607007 1 0 0
5910 0 1 0 1.615771119586784 77.24600785985506 86.93504755889086 1 0 0
6146 0 1 0 5.9088733834598575 74.76884181574111 86.65684213165925 1 0 0
6150 0 1 0 5.925285044858738 77.20953138416856 86.50406323406672 1 0 0
6151 0 1 0 6.639684491318175 76.00384772018754 86.42675225595242 1 0 0
6152 0 1 0 8.041472772700944 75.93795323193343 86.23075629900316 1 0 0
6385 0 1 0 8.785422380182016 74.70097132149039 86.16262100989006 1 0 0
6154 0 1 0 5.8340985538967045 79.6764678170502 86.13954313164554 1 0 0
5918 0 1 0 1.5330291332025594 82.02678101599638 86.11511850687748 1 0 0
5920 0 1 0 3.6916047282868467 80.86684322200364 86.08843642078834 1 0 0
6153 0 1 0 4.402347563756112 79.67568179940902 86.30763877794983 1 0 0
5905 0 1 0 0.23477368301125312 74.72004367080123 87.43233718184187 1 0 0
5917 0 1 0 0.08769508800734695 82.05276324438137 86.21536640767677 1 0 0
5909 0 1 0 0.14434382890369826 77.16944034288471 87.00103353525039 1 0 0
5913 0 1 0 0.13007323712321991 79.58574405179155 86.38542555964167 1 0 0
5921 0 1 0 0.08341057314576751 84.5158881690876 85.86272449138738 1 0 0
5925 0 1 0 0.02412490970934655 86.93062587705901 85.48097616001388 1 0 0
5929 0 1 0 0.001043266616221672 89.37209489170537 85.30065376400786 1 0 0
5908 0 1 0 3.8264278271092445 73.59059515498393 87.15975065917823 1 0 0
5944 0 1 0 3.348424402970098 95.59157576894901 83.97468401971149 1 0 0
6177 0 1 0 4.101533168680678 94.35938130739916 84.04647696546422 1 0 0
5940 0 1 0 3.40456278498875 93.07391187727112 84.27700276717188 1 0 0
6203 0 1 0 6.099883302686183 107.80576028778434 82.28719505637181 1 0 0
5939 0 1 0 1.9927184590755642 93.11048757960286 84.55011009513024 1 0 0
5943 0 1 0 1.9940821228727827 95.58565970339183 84.2266748911614 1 0 0
5967 0 1 0 1.7704883028237897 110.19651406927771 82.4072658755246 1 0 0
5938 0 1 0 1.3265953461050535 94.37517596709155 84.58794290043092 1 0 0
6198 0 1 0 5.423014644200119 106.5123550507053 82.50239048603918 1 0 0
6178 0 1 0 5.528782407398624 94.38418043091069 83.84584439646943 1 0 0
6183 0 1 0 6.296289101047722 95.59190301672398 83.57337670917396 1 0 0
6179 0 1 0 6.265832530068536 93.08112590737002 83.893978568892 1 0 0
6417 0 1 0 8.368819586384479 94.30748249345429 83.29604330947532 1 0 0
6208 0 1 0 7.434063176005757 110.24587243788793 81.68659533789672 1 0 0
6184 0 1 0 7.613843894590684 95.54614010462669 83.28957119896397 1 0 0
6180 0 1 0 7.6646542187732996 93.09114122573763 83.6323622576305 1 0 0
6437 0 1 0 8.21718812714362 106.56283674885889 81.99063341078444 1 0 0
6204 0 1 0 7.482474439687751 107.76108133661793 82.02316883384374 1 0 0
6185 0 1 0 3.9770374139614653 99.2085286071687 83.15105201070163 1 0 0
5952 0 1 0 3.263699794408259 100.48603716000461 83.1292652638512 1 0 0
5948 0 1 0 3.3100250472230863 97.98673600908276 83.47910111101125 1 0 0
6181 0 1 0 4.044900546875578 96.83190247773653 83.68762882614496 1 0 0
5951 0 1 0 1.8416189150248998 100.40435092394752 83.40676465188378 1 0 0
5947 0 1 0 1.924436262703877 97.99180616397284 83.85172323052275 1 0 0
5942 0 1 0 1.2071063840782064 96.76743536876015 84.18808601728337 1 0 0
5946 0 1 0 1.1863961608610545 99.199616054873 83.73375031460206 1 0 0
6186 0 1 0 5.4084320443197855 99.20076096433455 82.88409430639744 1 0 0
6182 0 1 0 5.4873032961102 96.80805218658325 83.50605744153597 1 0 0
6187 0 1 0 6.094604710058549 98.03067235756781 83.09660489737566 1 0 0
6191 0 1 0 6.082711848428411 100.40685274558881 82.606647444503 1 0 0
6188 0 1 0 7.55124038563558 97.92581811425784 82.85087836787233 1 0 0
6421 0 1 0 8.264317720315846 96.69566430515937 82.91597879886443 1 0 0
6425 0 1 0 8.219890259388814 99.14728301788918 82.58099012284178 1 0 0
5968 0 1 0 3.137868639726049 110.21053070697663 82.24084581911166 1 0 0
6207 0 1 0 5.990708739343991 110.25860234157099 81.92035874704578 1 0 0
6192 0 1 0 7.482568873719257 100.39143367239843 82.532433371363 1 0 0
5950 0 1 0 1.1492382468877098 101.65363997414019 83.54024168483288 1 0 0
5954 0 1 0 1.111479310389074 104.11343624314517 83.32866434691897 1 0 0
6190 0 1 0 5.413943963975183 101.63697666442903 82.66765368369836 1 0 0
6194 0 1 0 5.391758800682337 104.11922151922163 82.54060227765673 1 0 0
6189 0 1 0 4.009346521234564 101.63663862857668 82.93956772768462 1 0 0
6193 0 1 0 4.001841558783949 104.0898551228604 82.74554753112142 1 0 0
5956 0 1 0 3.228822867853534 102.86435859602253 82.86862694625482 1 0 0
5960 0 1 0 3.2235541842870172 105.33542806184201 82.73679780009516 1 0 0
5959 0 1 0 1.8572255073151756 105.32547744976901 83.04142545532126 1 0 0
5955 0 1 0 1.7836541349563544 102.85598766586058 83.2777240228926 1 0 0
6195 0 1 0 6.112600820718931 102.87000026962855 82.47100880138015 1 0 0
6196 0 1 0 7.53270225872688 102.86831311494353 82.3674423932467 1 0 0
6429 0 1 0 8.249404250936145 101.62259599543368 82.42666509319132 1 0 0
6433 0 1 0 8.227460605375729 104.11089642358044 82.17099071790211 1 0 0
6441 0 1 0 8.108673923843389 109.03876291293291 81.74300512774509 1 0 0
6202 0 1 0 5.334130140198267 109.01857080266745 82.15284929773343 1 0 0
6199 0 1 0 6.128465931001626 105.33284484986744 82.4384880515644 1 0 0
6200 0 1 0 7.54176786089644 105.3141936879737 82.20261610533743 1 0 0
5958 0 1 0 1.1416641325060524 106.51192301895878 83.04417740001561 1 0 0
5963 0 1 0 1.8175033630864004 107.70995591798756 82.80562061309482 1 0 0
5962 0 1 0 1.0983279417782605 108.96872764562995 82.7547004824831 1 0 0
5964 0 1 0 3.2238355911560768 107.7923950459388 82.59787959946904 1 0 0
6201 0 1 0 3.9173644802390366 109.02997833375684 82.30452570624423 1 0 0
6197 0 1 0 3.971824073497793 106.56489719387442 82.56165627670794 1 0 0
6450 0 1 0 9.483054928088235 113.91687314275272 80.9606463954951 1 0 0
6220 0 1 0 7.335716226245743 117.66610579476041 81.02925955615166 1 0 0
6453 0 1 0 8.064825026501746 116.4015703043501 80.99212736395823 1 0 0
6454 0 1 0 9.501519582031534 116.37951238080267 80.86803495697134 1 0 0
6457 0 1 0 8.044287551032776 118.87485115964262 80.93855906863098 1 0 0
6458 0 1 0 9.45778033506921 118.84177188524437 80.70652294916249 1 0 0
5986 0 1 0 0.9175236638500169 123.75973087059799 81.84900208909409 1 0 0
6225 0 1 0 3.780334284588592 123.78662134530698 81.53972059194534 1 0 0
6226 0 1 0 5.1769907781600315 123.7757870828894 81.40813783568396 1 0 0
6227 0 1 0 5.941574693423405 122.58359255621428 81.28361601065687 1 0 0
6224 0 1 0 7.3344979657309395 120.10688909069331 81.06029090198959 1 0 0
5990 0 1 0 0.9770682618211246 126.2401417257016 81.83209735146637 1 0 0
6228 0 1 0 7.369725397054933 122.539626643448 80.95478475525258 1 0 0
6461 0 1 0 8.051389960042826 121.29784540989125 80.99686784898749 1 0 0
6462 0 1 0 9.466804223964552 121.24096616105322 80.75396322792251 1 0 0
5983 0 1 0 1.7074548000722414 120.13881302217288 81.75512565504373 1 0 0
6466 0 1 0 9.42789076440283 123.76518919073337 80.71334070870634 1 0 0
6465 0 1 0 8.023834983186635 123.77238375772171 80.93868259498704 1 0 0
6229 0 1 0 3.799309405114446 126.24038124766008 81.51348430469001 1 0 0
6230 0 1 0 5.202474283549647 126.23478473375084 81.33521764052749 1 0 0
5996 0 1 0 3.1513712343376414 127.5075016693504 81.68272093141238 1 0 0