(written by ASE)

19140 atoms
3 atom types

0.0      154.00799999999998  xlo xhi
0.0      148.19999999999999  ylo yhi
0.0      151.07609208607428  zlo zhi

Masses

     1      12.010999996910238 # C
     2      1.0079999997406979 # H
     3      15.998999995884349 # O

Atoms # full

     1   0   1   0.0      18.352333915046056      5.3440758077417252      20.770606240430482
     2   0   1   0.0      6.1124096779003265     -5.8820593551444693      20.164803203311273
     3   0   1   0.0      18.314462877783921     -4.6294833648545657      20.209952846864013
     4   0   1   0.0      6.1599597437465308     -3.3971307830184396      20.223117573549388
     5   0   1   0.0      18.297152842245517     -2.0986788759029276      20.323618399018443
     6   0   1   0.0      6.2028363597190621    -0.89874858841457994      20.091346885590525
     7   0   1   0.0      18.307095376076525     0.29332850604231464      20.528479611770955
     8   0   1   0.0      6.1571827749597627      1.5453169677041636      20.052739209136977
     9   0   1   0.0      18.324524442488713       2.790077190387211      20.720691806901932
    10   0   1   0.0      6.1388499411107285      4.0617817318010552      20.093092949379674
    11   0   1   0.0      7.5951679642100549     -5.8759833594296831      20.189113483911761
    12   0   1   0.0      8.3279624866057649     -4.5895837514864306       20.15192326179438
    13   0   1   0.0      7.6061113387367554     -3.3534776138722391      20.160862917556816
    14   0   1   0.0      8.3691843567913899     -2.1432634921451461      20.167213897093255
    15   0   1   0.0      7.5952455609011276    -0.89994870942058791      20.168071684657559
    16   0   1   0.0      8.2946825892082394     0.34633064817953529      20.256911305315313
    17   0   1   0.0      7.5955327189735398      1.5725674837191139      20.210899090574678
    18   0   1   0.0      8.3407273476785289       2.782004310740283      20.307852048924747
    19   0   1   0.0      7.5856269181259526      4.0306780963940652       20.28935012029433
    20   0   1   0.0      8.2943069288047617        5.25065496214975      20.333676153788279
    21   0   1   0.0      9.7192491625430915      5.2596843689299062      20.404683044749184
    22   0   1   0.0      10.477000323400855     -5.7677191084492243      20.218073684266422
    23   0   1   0.0       9.777167522290009     -4.5975922252050729      20.115830345516908
    24   0   1   0.0       10.49310686700422     -3.3866707689520061       20.25607547674317
    25   0   1   0.0      9.7426662002354742     -2.1410336217653412      20.316121472276414
    26   0   1   0.0      10.432834703917905    -0.95510185133923875      20.415938902051579
    27   0   1   0.0      9.7061472183392876      0.3165003794399836      20.369249074613546
    28   0   1   0.0      10.481549116974303      1.5602551741198725      20.458185790350566
    29   0   1   0.0      9.7426161988332378       2.791329034212723      20.439885654476782
    30   0   1   0.0      10.417125192837993      4.0463175023255804      20.524289438598036
    31   0   1   0.0      11.895336393477324     -5.8016205527181883      20.276790920025419
    32   0   1   0.0      12.673016823503916     -4.6307253180130505      20.243237588743554
    33   0   1   0.0      11.888822596766792     -3.3880121102300751      20.372856731843424
    34   0   1   0.0      12.592147832350163     -2.1618477421205342      20.467712667239613
    35   0   1   0.0      11.875355551598904    -0.93909572747679382       20.46720607429668
    36   0   1   0.0      12.593561563114093     0.27310130126946913      20.529124567125653
    37   0   1   0.0      11.913832284196436      1.4911329146423342      20.489014016453769
    38   0   1   0.0      12.599847855876353      2.7807135987921523      20.713290780391183
    39   0   1   0.0      11.822653888815612      4.0002377617614808      20.741796629751057
    40   0   1   0.0      12.593409006787539      5.2455433805614167      20.734324072108357
    41   0   1   0.0      13.999369608764223      5.2734400248501476      20.853006436603327
    42   0   1   0.0      14.761147671338247     -5.8659934477358391      20.313367811152599
    43   0   1   0.0      14.048810151787595     -4.6867076616241574      20.402169397261094
    44   0   1   0.0      14.707284102653681     -3.4393718698810378      20.585954686706447
    45   0   1   0.0      14.023431233632387     -2.1882583507686779      20.639353426276813
    46   0   1   0.0      14.751776637160148    -0.96865875538984625      20.602772048524123
    47   0   1   0.0      14.008870175298867     0.28541613446021535      20.554392241145887
    48   0   1   0.0      14.711036130265873      1.5648585925453318      20.682160380303014
    49   0   1   0.0      14.009755117177246      2.7774656427102671      20.763728130306546
    50   0   1   0.0      14.758651521123957      4.0649280357005679       20.82852106739357
    51   0   1   0.0      16.213977403730613     -5.8646991029254725      20.293095336146706
    52   0   1   0.0       16.88007600995882     -4.6583376394260751      20.368537515883794
    53   0   1   0.0      16.133135283413324     -3.4491360956592136      20.537461870544774
    54   0   1   0.0      16.899373433906437     -2.1407798741823862      20.459608386814086
    55   0   1   0.0      16.163253722401915    -0.91611152638492632      20.588384963331521
    56   0   1   0.0      16.861704668992999     0.33918847606968161      20.605837595860184
    57   0   1   0.0      16.157344432128049       1.577822169663091      20.737551426276287
    58   0   1   0.0      16.903936500767831      2.7888916510965056      20.798762752834705
    59   0   1   0.0      16.176570722747577      4.0532150632269923      20.790567122633917
    60   0   1   0.0      16.863745282403567      5.2828633626546013      20.721882334716643
    61   0   1   0.0      18.314192124852561      17.610052568011596       19.83602964217695
    62   0   1   0.0      6.2053803004609094      6.5819569437083798      20.118552290883507
    63   0   1   0.0       18.30065654456412      7.8286825826385158      20.552555172478201
    64   0   1   0.0      6.1933302414404272      9.0112945557887123      20.073884224687866
    65   0   1   0.0      18.275454797204507      10.271204021300486      20.475110980999801
    66   0   1   0.0      6.1853518112283421       11.51162949829304      20.193605141727012
    67   0   1   0.0      18.356207507180038      12.711359538453443      20.349092009194198
    68   0   1   0.0       6.157693264047281      13.978935137177462      20.039326173072698
    69   0   1   0.0      18.278476302711447       15.16193731064765      20.131757909118978
    70   0   1   0.0      6.1938392481604545      16.487501293849679      19.806896009593295
    71   0   1   0.0      7.6007379082802746      6.5055001789460176      20.276714975491537
    72   0   1   0.0      8.3231333384077288      7.7594668387675583      20.317940658758832
    73   0   1   0.0      7.6332379665063543      8.9937774611498398      20.222874313455907
    74   0   1   0.0      8.3248247681319612      10.254377449470722      20.340634835534686
    75   0   1   0.0      7.5917837182721559      11.475954783093684      20.366187808681229
    76   0   1   0.0      8.3269066922392128      12.746542195128651      20.284189911528411
    77   0   1   0.0       7.597824973310316      14.003652110805184      20.102858298904962
    78   0   1   0.0      8.3440362699994957      15.220432392944016      20.091321145697947
    79   0   1   0.0      7.5908937320005307       16.49032991903298       19.98216042538456
    80   0   1   0.0      8.2915956879707533      17.712171073216524      19.931410023056412
    81   0   1   0.0      9.7072953384835294      17.654508597102009      20.064272874364836
    82   0   1   0.0      10.430274382894334      6.5493605825368766      20.562433740392631
    83   0   1   0.0      9.7094702440059635      7.7818312785995953      20.564487039143696
    84   0   1   0.0      10.411223888996382      9.0360023576882327      20.680074775274047
    85   0   1   0.0      9.7494411372405931      10.282693952016402      20.487412865558529
    86   0   1   0.0      10.452659660996321      11.532561542986423      20.579943936032318
    87   0   1   0.0      9.7205089366105693       12.72539401929278      20.408810899427181
    88   0   1   0.0      10.390651999418893      13.999720729885095      20.411183723543854
    89   0   1   0.0      9.6976831179461485      15.226508931122076      20.242681620039164
    90   0   1   0.0      10.439507576041448      16.460287211595197      20.232984724027673
    91   0   1   0.0      11.878774411278902       6.473554388988811      20.693158380557282
    92   0   1   0.0      12.575682073048036      7.7949926405659724       20.80954080550962
    93   0   1   0.0      11.864054459019117      9.0244467377502069      20.763529263943976
    94   0   1   0.0      12.616096511870746      10.309147954097686      20.773487819335482
    95   0   1   0.0      11.844078491888531       11.56632099367175      20.664878474732511
    96   0   1   0.0       12.53014050507001      12.812477746965502      20.510285298225583
    97   0   1   0.0      11.818602850328055      14.002840076940979      20.384110776745739
    98   0   1   0.0      12.547909696301794      15.211839080183655      20.190647050646994
    99   0   1   0.0      11.847096588341344      16.455772165564621      20.235362958606764
   100   0   1   0.0      12.609088107830603      17.662319985180993      20.047227252452096
   101   0   1   0.0      14.009275379298359      17.643897353708994      20.038109099857643
   102   0   1   0.0      14.715876186708089      6.5101499475338347      20.797433685261758
   103   0   1   0.0      14.026565192037552       7.757102656282636       20.88959921096691
   104   0   1   0.0      14.728469273797662       9.034138801793663      20.905704707688205
   105   0   1   0.0      14.030285922040774       10.30027891251315      20.811542288492443
   106   0   1   0.0      14.692711610067768      11.563398390379929      20.620930733408624
   107   0   1   0.0      13.945281712582414      12.785082219779106      20.527699295398875
   108   0   1   0.0      14.706175869310538       13.98191626941148      20.417570945337093
   109   0   1   0.0      13.965861218779914      15.180730232324699       20.20762984124331
   110   0   1   0.0      14.690026969302881      16.406690294642164      20.085767503562803
   111   0   1   0.0      16.145099732905972      6.5493481202458153      20.689079701230742
   112   0   1   0.0      16.885733382098479      7.8233540614386268      20.786676821862606
   113   0   1   0.0      16.149117364465322      9.0280270277567123      20.813969852470031
   114   0   1   0.0      16.838722771298563      10.309782931463808      20.660003627765768
   115   0   1   0.0      16.107768292053372      11.577445912582373       20.53306586302249
   116   0   1   0.0      16.883102377068926      12.774582491354332      20.347207101878418
   117   0   1   0.0      16.114540549854976      13.970591178318132      20.366579191924711
   118   0   1   0.0      16.851693143867561      15.165039116654702      20.154559213319114
   119   0   1   0.0      16.150220954765786      16.436938600872296      20.047938041815197
   120   0   1   0.0      16.897274463927875      17.656475094536237      19.915302662637291
   121   0   1   0.0      18.322364917612212      29.934527966166005      19.532946141136417
   122   0   1   0.0      6.1410723941393384       18.88987002313311      19.561617948158773
   123   0   1   0.0      18.295775014263771      20.088146097772743      19.920454778902212
   124   0   1   0.0      6.0932316766956944      21.374082636580955      19.461371654953577
   125   0   1   0.0      18.303955054453446      22.544098222169737       19.84641885423969
   126   0   1   0.0      6.1440958848268199      23.805069761697602      19.332527227428791
   127   0   1   0.0      18.295621526462845       24.99837958107241       19.66377097198389
   128   0   1   0.0      6.1104692585224276      26.307929743005133      19.162212985627836
   129   0   1   0.0      18.267680322213224      27.474166869029741      19.588476721152233
   130   0   1   0.0      6.1607858077175548       28.77637713962913      19.140826711283371
   131   0   1   0.0      7.5730169394343676      18.938851202700317      19.735220517859805
   132   0   1   0.0      8.2053332059677917      20.177221777633488      19.591743525020533
   133   0   1   0.0      7.5499414156203661      21.388708964290924      19.603514887009641
   134   0   1   0.0      8.2386592512501995       22.58498205855927      19.716851851056617
   135   0   1   0.0      7.5543129751457023      23.869629209543817      19.590266213426712
   136   0   1   0.0      8.2586326602109583      25.064054992574608      19.491374534867358
   137   0   1   0.0      7.5633572591517773      26.344827979488635       19.38751199960921
   138   0   1   0.0      8.2533390349115923      27.548261738661701       19.48098064209664
   139   0   1   0.0      7.5601233637064995      28.779664174116149      19.241649529708234
   140   0   1   0.0      8.2717157706720936      29.997567848589174      19.333098758046699
   141   0   1   0.0      9.7154828286837098      30.035288496333834       19.42244803636909
   142   0   1   0.0      10.403848157117265      18.919270744061105      19.975951705143782
   143   0   1   0.0      9.6149713156597141      20.130587239031637      19.726384838525625
   144   0   1   0.0      10.359607925945495      21.306015009073374      19.801346199214461
   145   0   1   0.0      9.6431413747323127      22.562590249670375      19.718320837774545
   146   0   1   0.0      10.376685435688673      23.799232627749308      19.601767125221141
   147   0   1   0.0      9.6756199723570067      25.074978830126319      19.449262085841578
   148   0   1   0.0       10.39108347793413      26.296115053552171      19.465985638170913
   149   0   1   0.0      9.6973085082331245      27.536050760222924      19.437010400800741
   150   0   1   0.0        10.4465234659505      28.760505120113947      19.375255077011072
   151   0   1   0.0      11.825923187302733      18.887702411420495      19.934328521356193
   152   0   1   0.0      12.551170035713332      20.124420723412079      19.881968512918064
   153   0   1   0.0      11.820428504763406      21.262567542172444      19.833456116754093
   154   0   1   0.0      12.522521305463808      22.533755007406203      19.751226807145279
   155   0   1   0.0      11.746619143365832      23.794823376685777      19.623318386480932
   156   0   1   0.0      12.526520734564139      24.984376705166703      19.403991988600978
   157   0   1   0.0      11.829398723379985      26.222895040225559      19.357599685566576
   158   0   1   0.0      12.607493195709045      27.487798702201626      19.243551787989194
   159   0   1   0.0      11.909921536171678      28.746337580692725      19.250251232753616
   160   0   1   0.0      12.601451686688602      29.961771896485743        19.2072273685311
   161   0   1   0.0      14.035410327346383       29.95062782533736      19.317582818783972
   162   0   1   0.0      14.688392193371367      18.847105451637162       19.92053231997734
   163   0   1   0.0      13.982418830964683      20.069538415383832      19.911629710140641
   164   0   1   0.0      14.700061659840653      21.318990617741601      19.789616030763245
   165   0   1   0.0      13.957683615586797      22.568989489506045      19.677734013264558
   166   0   1   0.0      14.691265311412931      23.768951927451184      19.510811555141803
   167   0   1   0.0      13.964991003422419      24.986933703941279      19.405282123995697
   168   0   1   0.0      14.682353831345273      26.249551925302473      19.294240915773763
   169   0   1   0.0      13.970972735710985      27.470571334841456      19.272197766178014
   170   0   1   0.0      14.716814942415901      28.717502567844175      19.390163058296796
   171   0   1   0.0      16.153241214103414      18.846323632534308      19.889717795701223
   172   0   1   0.0      16.840600571967276      20.087712289964479      19.900078584797694
   173   0   1   0.0       16.13342753856405      21.321557156452432       19.82349557318533
   174   0   1   0.0      16.877970166070597      22.569121789142958      19.789449949578081
   175   0   1   0.0      16.183598228257829      23.789754199648801      19.546020427257499
   176   0   1   0.0      16.880598437755715      25.010687386681429       19.56344656182122
   177   0   1   0.0      16.159160303198643      26.260619126447864      19.391943459817121
   178   0   1   0.0      16.862490471752974      27.486690918193954      19.484395769328135
   179   0   1   0.0      16.127434451261372      28.710310652262763      19.411174759635085
   180   0   1   0.0      16.881718136272674      29.935694794108713      19.448725011659711
   181   0   1   0.0      18.276621136058637      42.351913854998394      19.039453476249694
   182   0   1   0.0       6.153496358069928      31.230760118336395      19.098326078683971
   183   0   1   0.0      18.292876816950475      32.402450824350439      19.388708741814241
   184   0   1   0.0       6.146583747762139      33.683958103705258      19.084536294956308
   185   0   1   0.0      18.299402874771733      34.872428985909792      19.371744930723288
   186   0   1   0.0      6.1796355319691552      36.194645796769009      19.109908086711997
   187   0   1   0.0      18.297733255658883      37.321265564714125      19.210147154579211
   188   0   1   0.0      6.1260368978396809      38.667127065926266       19.13809253724088
   189   0   1   0.0      18.300653475656102      39.823101806198487      19.186569826572129
   190   0   1   0.0      6.1523549202152203      41.100946147701492      19.253323491836774
   191   0   1   0.0      7.5671566166184601      31.273227078965256      19.293780546626234
   192   0   1   0.0      8.3244022008511873      32.462867690166526      19.280487251357517
   193   0   1   0.0      7.5838449485155648      33.655718349228707        19.1635435153175
   194   0   1   0.0      8.2653568032152798      34.905508586199176      19.108193922093918
   195   0   1   0.0      7.5980784645713779       36.14857542636134      18.977134721876311
   196   0   1   0.0      8.3223407738247683      37.416067351812949      19.058220591361778
   197   0   1   0.0      7.5713216901753642       38.64510199073105      19.070252096380241
   198   0   1   0.0      8.2676247359904487      39.833319613635716      19.059162547332068
   199   0   1   0.0      7.5784248724209915      41.068758902008284      19.159716592740015
   200   0   1   0.0      8.2261858368543539      42.335067052457525      18.926250028891715
   201   0   1   0.0      9.6802549450434281      42.355028839296558      18.956349282230814
   202   0   1   0.0       10.48665138055906       31.23254577489195      19.381759781848913
   203   0   1   0.0      9.7141308511604922      32.455180542449661      19.291826002499281
   204   0   1   0.0      10.379391862334641      33.698657904027975      19.214396516230572
   205   0   1   0.0      9.7519800998249426      34.958015629835401      19.163659058554014
   206   0   1   0.0       10.42172806752175      36.183423322330931      19.104704565584132
   207   0   1   0.0      9.7140208230707561      37.430024751436385      19.049212847097124
   208   0   1   0.0      10.444044850473416      38.658715040796714      19.140530700320689
   209   0   1   0.0      9.7057028898988733      39.900192814536148      19.052869056875153
   210   0   1   0.0      10.399931540680624       41.14182884814371      18.989335248971564
   211   0   1   0.0      11.887786702754498      31.183273452955845      19.278896725276926
   212   0   1   0.0      12.585397258678674      32.427160608588359      19.333826422339055
   213   0   1   0.0      11.797184024158273      33.664894851817749      19.285236631406296
   214   0   1   0.0      12.573750512947013      34.888073936994651       19.18563000214073
   215   0   1   0.0      11.858107619268162      36.154856582650474      19.104251689692386
   216   0   1   0.0      12.557671774137726      37.387615194618199      19.196237440526669
   217   0   1   0.0      11.875380654774084      38.647526012844921      19.229445276159844
   218   0   1   0.0      12.546543447861939      39.887554690869507      19.095815818679913
   219   0   1   0.0      11.790881203410077      41.121058589573458      19.073702254110128
   220   0   1   0.0      12.531708071679986      42.288445117932596      18.901447239001165
   221   0   1   0.0      13.965815859386643      42.311043828004912      18.775484079405988
   222   0   1   0.0      14.696152151983442        31.1930916789393      19.312570067554994
   223   0   1   0.0      14.029501445109855      32.432956286711978      19.298967370525826
   224   0   1   0.0       14.70206687143278      33.663097560266515      19.151411384488188
   225   0   1   0.0      13.979966915044042      34.868637816197513      19.211688545284577
   226   0   1   0.0      14.681579507772836      36.125465834380208      19.147992137196319
   227   0   1   0.0      13.956539316305475      37.384973238262447      19.169656682569432
   228   0   1   0.0      14.711234998384223      38.587959474888358      19.116820987646122
   229   0   1   0.0      13.970378918152099      39.883032812366139       19.03422426907057
   230   0   1   0.0      14.709522462250382      41.083882004425533      18.995191584200374
   231   0   1   0.0      16.143762326327717      31.201292913416374      19.318687899632149
   232   0   1   0.0      16.899962792469722      32.392566741408821      19.300672644696004
   233   0   1   0.0       16.15338098510108      33.640214736341292      19.229076902006575
   234   0   1   0.0       16.84370497138271      34.870701150499414      19.242095138661671
   235   0   1   0.0      16.131714800192743      36.108921955981408       19.17668918769413
   236   0   1   0.0      16.868313650172762      37.326964095384234      19.133892161277171
   237   0   1   0.0      16.122657086714156      38.553740304589532      19.108438236306842
   238   0   1   0.0      16.839633376199163      39.814152178959297      19.074573692029805
   239   0   1   0.0      16.089093889693224      41.071049076737921      19.043844814583359
   240   0   1   0.0      16.850706086847868      42.297921696027963      18.989109914174051
   241   0   1   0.0      18.255393851850187      54.664023552989413        18.5845397925081
   242   0   1   0.0      6.1417746765014538      43.586110933642829      19.017338066724545
   243   0   1   0.0      18.224311077951935      44.747915172242095      19.106525455247276
   244   0   1   0.0      6.1975233816464277      46.044120240125231      19.142351848539555
   245   0   1   0.0      18.208368203553761       47.20016090906465      19.067400668454543
   246   0   1   0.0      6.1062891843665215      48.522667249687991      19.070403884250574
   247   0   1   0.0      18.250227773239398      49.692817169522264      18.903570238354472
   248   0   1   0.0      6.1534961816287082      50.916997468853715      18.854769215527035
   249   0   1   0.0      18.203792198133048      52.200245437534427      18.687283615010003
   250   0   1   0.0      6.1526894616041394      53.356449718472064      18.836113228130703
   251   0   1   0.0      7.5398024851562502      43.573129691532515       18.92791168208376
   252   0   1   0.0      8.2732078187097375      44.799358727962215      18.914517722433441
   253   0   1   0.0       7.576672083192113      46.042110356350435      18.981414797856136
   254   0   1   0.0      8.3074837204864238      47.281467331025979      18.811667836711251
   255   0   1   0.0      7.5697462616711437      48.548031533597971      18.906135885277678
   256   0   1   0.0      8.2446179757722025      49.755794460061722      18.769508408843173
   257   0   1   0.0      7.5892148766048146      50.963748350159086      18.796768177060237
   258   0   1   0.0      8.2852500491400605      52.190911545481697      18.789664682768617
   259   0   1   0.0      7.5605144702532412      53.359522018636447      18.822096664511246
   260   0   1   0.0      8.2327408374560527      54.667740113703566      18.822181322775986
   261   0   1   0.0      9.6860196992117764      54.703818251237777      18.747452067588188
   262   0   1   0.0      10.372454801118094      43.561111043592341      18.757718284932512
   263   0   1   0.0      9.6553716205375668      44.802763445329838      18.742180146759523
   264   0   1   0.0      10.383854577272668       46.02890843442421      18.776883946186281
   265   0   1   0.0      9.6991504526214722      47.252403048261534      18.749671845334394
   266   0   1   0.0       10.37856784886444      48.485830483795873      18.659353083359296
   267   0   1   0.0      9.7140116941674073      49.717625250741335      18.677224252497542
   268   0   1   0.0      10.396157299691238      50.980977927312253      18.731413245597096
   269   0   1   0.0      9.7015328784541452      52.164539109628052      18.848738569028324
   270   0   1   0.0       10.40038237107197      53.452358879864605      18.794703421654781
   271   0   1   0.0      11.812306440925706      43.516790360920545      18.809889366303114
   272   0   1   0.0      12.554714019894533      44.718414761687782      18.667867203022251
   273   0   1   0.0      11.877021086721646      45.989477987082232      18.683919574707986
   274   0   1   0.0      12.523889628927744      47.234256782581724      18.642993189097236
   275   0   1   0.0      11.788427745678788      48.469855420247718      18.610315925749195
   276   0   1   0.0      12.583148872228477      49.741294819246654      18.669683192800086
   277   0   1   0.0      11.828020492123194      50.984654342709419      18.611156370561492
   278   0   1   0.0      12.500276695183011      52.227110366022657      18.600032100093692
   279   0   1   0.0       11.79825044425724      53.470620669958265      18.661335619711476
   280   0   1   0.0      12.627219695977642      54.682869316616177      18.554817946277122
   281   0   1   0.0      14.010036394808356      54.746782197553699      18.545380480219084
   282   0   1   0.0       14.73997522875101      43.536150918458674      18.773519813063356
   283   0   1   0.0      13.997425365773042      44.706992140445678      18.701899689984199
   284   0   1   0.0       14.66561822279022      46.001028953053464      18.821050393815408
   285   0   1   0.0      13.984867099839368      47.224955855394327      18.650456112388365
   286   0   1   0.0      14.712960980417169      48.487473486347724      18.689607192840437
   287   0   1   0.0      14.010028723689009      49.706781698802473      18.610242106627382
   288   0   1   0.0      14.658754941472786      50.987500775423257      18.560911004783581
   289   0   1   0.0      13.920308187412271      52.250292941700934      18.586082183653197
   290   0   1   0.0      14.720867352189883      53.514373783726363      18.615455142216437
   291   0   1   0.0      16.125743046444981      43.487872885432168      18.924408619654056
   292   0   1   0.0      16.798782462751937      44.736960089097074      18.942136413719322
   293   0   1   0.0      16.065608319635952      45.980214333245925      18.943529100578214
   294   0   1   0.0      16.789834867001812       47.21488449211067      18.991805011819462
   295   0   1   0.0      16.111170321371414      48.497139297670678      18.842742581612907
   296   0   1   0.0      16.849488397406009      49.750650343882576      18.778998199630632
   297   0   1   0.0      16.066799036015635      50.973056357721774      18.724852402669885
   298   0   1   0.0      16.833027090550427      52.161534557887222      18.750888179500723
   299   0   1   0.0      16.139293866560052      53.460847866910314      18.644071773285784
   300   0   1   0.0      16.853255831483082      54.701383057499676      18.576809668060363
   301   0   1   0.0      18.262709017892508       67.02536849920125      18.537567430685776
   302   0   1   0.0      6.0852615111076558      55.847287401596226      18.724599443927932
   303   0   1   0.0      18.247707948563836       57.14469230427823      18.497443809989591
   304   0   1   0.0      6.1089754019255826      58.367011935107328      18.740840513025528
   305   0   1   0.0      18.295748600570402      59.620841966131444      18.574591644702224
   306   0   1   0.0      6.1284684313012887      60.819527130401973      18.561352778330676
   307   0   1   0.0      18.271945530719606      62.065777672618857      18.590674803085669
   308   0   1   0.0      6.0275959064352618      63.346675310002219      18.513565576315756
   309   0   1   0.0      18.286484391435962      64.583129270535693      18.515491417817202
   310   0   1   0.0      6.1158665686323737      65.750281574595235        18.6014375964177
   311   0   1   0.0      7.5303351452050951      55.862515223071924      18.709594070542931
   312   0   1   0.0      8.2862422840840626      57.123122407183253      18.617038099501066
   313   0   1   0.0      7.5793738176581913      58.376712838328821      18.631076030013837
   314   0   1   0.0      8.2705169039465627      59.577772655431183      18.564197514004661
   315   0   1   0.0      7.5896288955324733      60.863682924327122      18.549911666853184
   316   0   1   0.0      8.2208054868024654      62.078880710880924      18.555741198338922
   317   0   1   0.0      7.4684179523792809      63.316444447482361      18.528595872443315
   318   0   1   0.0      8.2798917651777497      64.496967186615123      18.559661520347884
   319   0   1   0.0       7.560239659163611      65.763014388545912      18.621851074886077